 Entering Gaussian System, Link 0=g09
 Input=H2O-term.gjf
 Output=H2O-term.log
 Initial command:
 /share/home/zxchen/g09/l1.exe /scratch/zxchen/Gau-19288.inp -scrdir=/scratch/zxchen/
 Entering Link 1 = /share/home/zxchen/g09/l1.exe PID=     19289.
  
 Copyright (c) 1988,1990,1992,1993,1995,1998,2003,2009,2010,
            Gaussian, Inc.  All Rights Reserved.
  
 This is part of the Gaussian(R) 09 program.  It is based on
 the Gaussian(R) 03 system (copyright 2003, Gaussian, Inc.),
 the Gaussian(R) 98 system (copyright 1998, Gaussian, Inc.),
 the Gaussian(R) 94 system (copyright 1995, Gaussian, Inc.),
 the Gaussian 92(TM) system (copyright 1992, Gaussian, Inc.),
 the Gaussian 90(TM) system (copyright 1990, Gaussian, Inc.),
 the Gaussian 88(TM) system (copyright 1988, Gaussian, Inc.),
 the Gaussian 86(TM) system (copyright 1986, Carnegie Mellon
 University), and the Gaussian 82(TM) system (copyright 1983,
 Carnegie Mellon University). Gaussian is a federally registered
 trademark of Gaussian, Inc.
  
 This software contains proprietary and confidential information,
 including trade secrets, belonging to Gaussian, Inc.
  
 This software is provided under written license and may be
 used, copied, transmitted, or stored only in accord with that
 written license.
  
 The following legend is applicable only to US Government
 contracts under FAR:
  
                    RESTRICTED RIGHTS LEGEND
  
 Use, reproduction and disclosure by the US Government is
 subject to restrictions as set forth in subparagraphs (a)
 and (c) of the Commercial Computer Software - Restricted
 Rights clause in FAR 52.227-19.
  
 Gaussian, Inc.
 340 Quinnipiac St., Bldg. 40, Wallingford CT 06492
  
  
 ---------------------------------------------------------------
 Warning -- This program may not be used in any manner that
 competes with the business of Gaussian, Inc. or will provide
 assistance to any competitor of Gaussian, Inc.  The licensee
 of this program is prohibited from giving any competitor of
 Gaussian, Inc. access to this program.  By using this program,
 the user acknowledges that Gaussian, Inc. is engaged in the
 business of creating and licensing software in the field of
 computational chemistry and represents and warrants to the
 licensee that it is not a competitor of Gaussian, Inc. and that
 it will not use this program in any manner prohibited above.
 ---------------------------------------------------------------
  

 Cite this work as:
 Gaussian 09, Revision B.01,
 M. J. Frisch, G. W. Trucks, H. B. Schlegel, G. E. Scuseria, 
 M. A. Robb, J. R. Cheeseman, G. Scalmani, V. Barone, B. Mennucci, 
 G. A. Petersson, H. Nakatsuji, M. Caricato, X. Li, H. P. Hratchian, 
 A. F. Izmaylov, J. Bloino, G. Zheng, J. L. Sonnenberg, M. Hada, 
 M. Ehara, K. Toyota, R. Fukuda, J. Hasegawa, M. Ishida, T. Nakajima, 
 Y. Honda, O. Kitao, H. Nakai, T. Vreven, J. A. Montgomery, Jr., 
 J. E. Peralta, F. Ogliaro, M. Bearpark, J. J. Heyd, E. Brothers, 
 K. N. Kudin, V. N. Staroverov, T. Keith, R. Kobayashi, J. Normand, 
 K. Raghavachari, A. Rendell, J. C. Burant, S. S. Iyengar, J. Tomasi, 
 M. Cossi, N. Rega, J. M. Millam, M. Klene, J. E. Knox, J. B. Cross, 
 V. Bakken, C. Adamo, J. Jaramillo, R. Gomperts, R. E. Stratmann, 
 O. Yazyev, A. J. Austin, R. Cammi, C. Pomelli, J. W. Ochterski, 
 R. L. Martin, K. Morokuma, V. G. Zakrzewski, G. A. Voth, 
 P. Salvador, J. J. Dannenberg, S. Dapprich, A. D. Daniels, 
 O. Farkas, J. B. Foresman, J. V. Ortiz, J. Cioslowski, 
 and D. J. Fox, Gaussian, Inc., Wallingford CT, 2010.
 
 ******************************************
 Gaussian 09:  EM64L-G09RevB.01 12-Aug-2010
                26-Apr-2018 
 ******************************************
 %chk=H2O-term.chk
 %mem=4GB
 %nprocshared=24
 Will use up to   24 processors via shared memory.
 ----------------------------------------------------------------------
 # scrf=(smd,solvent=water) opt=(ts,noeigen,calcfc) freq b3lyp/6-31++g(
 d,p)
 ----------------------------------------------------------------------
 1/5=1,10=4,11=1,14=-1,18=20,26=3,38=1/1,3;
 2/9=110,12=2,17=6,18=5,40=1/2;
 3/5=1,6=6,7=1111,11=2,16=1,25=1,30=1,70=32201,71=2,72=1,74=-5/1,2,3;
 4//1;
 5/5=2,38=5,53=1/2;
 8/6=4,10=90,11=11/1;
 11/6=1,8=1,9=11,15=111,16=1/1,2,10;
 10/6=1,7=6,13=1/2;
 6/7=2,8=2,9=2,10=2,28=1/1;
 7/10=1,18=20,25=1/1,2,3,16;
 1/5=1,10=4,11=1,14=-1,18=20/3(2);
 2/9=110/2;
 99//99;
 2/9=110/2;
 3/5=1,6=6,7=1111,11=2,16=1,25=1,30=1,70=32205,71=1,72=1,74=-5/1,2,3;
 4/5=5,16=3/1;
 5/5=2,38=5,53=1/2;
 7//1,2,3,16;
 1/5=1,11=1,14=-1,18=20/3(-5);
 2/9=110/2;
 6/7=2,8=2,9=2,10=2,19=2,28=1/1;
 99/9=1/99;
 ------------
 OH-BACK-TERM
 ------------
 Symbolic Z-matrix:
 Charge =  0 Multiplicity = 1
 C
 C                    1    B1
 O                    1    B2       2    A1
 H                    1    B3       3    A2       2    D1       0
 H                    2    B4       1    A3       3    D2       0
 H                    2    B5       1    A4       3    D3       0
 C                    1    B6       3    A5       2    D4       0
 H                    7    B7       1    A6       3    D5       0
 H                    7    B8       1    A7       3    D6       0
 H                    7    B9       1    A8       3    D7       0
 O                    2    B10      1    A9       3    D8       0
 H                    11   B11      2    A10      1    D9       0
 H                    11   B12      2    A11      1    D10      0
       Variables:
  B1                    1.47699                  
  B2                    1.3993                   
  B3                    1.1061                   
  B4                    1.08401                  
  B5                    1.0844                   
  B6                    1.52745                  
  B7                    1.09741                  
  B8                    1.09359                  
  B9                    1.09472                  
  B10                   2.20329                  
  B11                   0.96799                  
  B12                   1.04473                  
  A1                   94.21089                  
  A2                  111.4856                   
  A3                  124.6306                   
  A4                  117.24284                  
  A5                  115.02175                  
  A6                  110.98888                  
  A7                  109.2995                   
  A8                  110.66117                  
  A9                  101.64969                  
  A10                 109.94163                  
  A11                  71.37976                  
  D1                  113.40872                  
  D2                 -119.74489                  
  D3                   68.84343                  
  D4                 -121.19543                  
  D5                  177.22484                  
  D6                  -63.0557                   
  D7                   56.01682                  
  D8                  -37.76004                  
  D9                  126.86665                  
  D10                  24.86981                  
 

 GradGradGradGradGradGradGradGradGradGradGradGradGradGradGradGradGradGrad
 Berny optimization.
 Initialization pass.
                           ----------------------------
                           !    Initial Parameters    !
                           ! (Angstroms and Degrees)  !
 --------------------------                            --------------------------
 ! Name  Definition              Value          Derivative Info.                !
 --------------------------------------------------------------------------------
 ! R1    R(1,2)                  1.477          calculate D2E/DX2 analytically  !
 ! R2    R(1,3)                  1.3993         calculate D2E/DX2 analytically  !
 ! R3    R(1,4)                  1.1061         calculate D2E/DX2 analytically  !
 ! R4    R(1,7)                  1.5274         calculate D2E/DX2 analytically  !
 ! R5    R(2,5)                  1.084          calculate D2E/DX2 analytically  !
 ! R6    R(2,6)                  1.0844         calculate D2E/DX2 analytically  !
 ! R7    R(3,13)                 1.4765         calculate D2E/DX2 analytically  !
 ! R8    R(7,8)                  1.0974         calculate D2E/DX2 analytically  !
 ! R9    R(7,9)                  1.0936         calculate D2E/DX2 analytically  !
 ! R10   R(7,10)                 1.0947         calculate D2E/DX2 analytically  !
 ! R11   R(11,12)                0.968          calculate D2E/DX2 analytically  !
 ! R12   R(11,13)                1.0447         calculate D2E/DX2 analytically  !
 ! A1    A(2,1,3)               94.2109         calculate D2E/DX2 analytically  !
 ! A2    A(2,1,4)              109.9858         calculate D2E/DX2 analytically  !
 ! A3    A(2,1,7)              115.9141         calculate D2E/DX2 analytically  !
 ! A4    A(3,1,4)              111.4856         calculate D2E/DX2 analytically  !
 ! A5    A(3,1,7)              115.0218         calculate D2E/DX2 analytically  !
 ! A6    A(4,1,7)              109.4796         calculate D2E/DX2 analytically  !
 ! A7    A(1,2,5)              124.6306         calculate D2E/DX2 analytically  !
 ! A8    A(1,2,6)              117.2428         calculate D2E/DX2 analytically  !
 ! A9    A(5,2,6)              117.5949         calculate D2E/DX2 analytically  !
 ! A10   A(1,3,13)             104.5216         calculate D2E/DX2 analytically  !
 ! A11   A(1,7,8)              110.9889         calculate D2E/DX2 analytically  !
 ! A12   A(1,7,9)              109.2995         calculate D2E/DX2 analytically  !
 ! A13   A(1,7,10)             110.6612         calculate D2E/DX2 analytically  !
 ! A14   A(8,7,9)              108.5702         calculate D2E/DX2 analytically  !
 ! A15   A(8,7,10)             109.0426         calculate D2E/DX2 analytically  !
 ! A16   A(9,7,10)             108.2098         calculate D2E/DX2 analytically  !
 ! A17   A(12,11,13)           107.1016         calculate D2E/DX2 analytically  !
 ! A18   A(3,13,11)            149.9463         calculate D2E/DX2 analytically  !
 ! D1    D(3,1,2,5)           -119.7449         calculate D2E/DX2 analytically  !
 ! D2    D(3,1,2,6)             68.8434         calculate D2E/DX2 analytically  !
 ! D3    D(4,1,2,5)            125.5738         calculate D2E/DX2 analytically  !
 ! D4    D(4,1,2,6)            -45.8379         calculate D2E/DX2 analytically  !
 ! D5    D(7,1,2,5)              0.7387         calculate D2E/DX2 analytically  !
 ! D6    D(7,1,2,6)           -170.673          calculate D2E/DX2 analytically  !
 ! D7    D(2,1,3,13)            39.1938         calculate D2E/DX2 analytically  !
 ! D8    D(4,1,3,13)           152.6025         calculate D2E/DX2 analytically  !
 ! D9    D(7,1,3,13)           -82.0016         calculate D2E/DX2 analytically  !
 ! D10   D(2,1,7,8)             68.7502         calculate D2E/DX2 analytically  !
 ! D11   D(2,1,7,9)           -171.5303         calculate D2E/DX2 analytically  !
 ! D12   D(2,1,7,10)           -52.4578         calculate D2E/DX2 analytically  !
 ! D13   D(3,1,7,8)            177.2248         calculate D2E/DX2 analytically  !
 ! D14   D(3,1,7,9)            -63.0557         calculate D2E/DX2 analytically  !
 ! D15   D(3,1,7,10)            56.0168         calculate D2E/DX2 analytically  !
 ! D16   D(4,1,7,8)            -56.3446         calculate D2E/DX2 analytically  !
 ! D17   D(4,1,7,9)             63.3749         calculate D2E/DX2 analytically  !
 ! D18   D(4,1,7,10)          -177.5526         calculate D2E/DX2 analytically  !
 ! D19   D(1,3,13,11)          -30.5963         calculate D2E/DX2 analytically  !
 ! D20   D(12,11,13,3)        -103.4386         calculate D2E/DX2 analytically  !
 --------------------------------------------------------------------------------
 Trust Radius=3.00D-01 FncErr=1.00D-07 GrdErr=1.00D-06
 Number of steps in this run=     60 maximum allowed number of steps=    100.
 Search for a saddle point of order  1.
 GradGradGradGradGradGradGradGradGradGradGradGradGradGradGradGradGradGrad

                          Input orientation:                          
 ---------------------------------------------------------------------
 Center     Atomic      Atomic             Coordinates (Angstroms)
 Number     Number       Type             X           Y           Z
 ---------------------------------------------------------------------
      1          6           0        0.000000    0.000000    0.000000
      2          6           0        0.000000    0.000000    1.476987
      3          8           0        1.395521    0.000000   -0.102747
      4          1           0       -0.434058    0.944522   -0.378051
      5          1           0       -0.442535   -0.774436    2.093011
      6          1           0        0.347966    0.899130    1.973386
      7          6           0       -0.696950   -1.183962   -0.667530
      8          1           0       -1.781569   -1.144072   -0.505304
      9          1           0       -0.504535   -1.156761   -1.743720
     10          1           0       -0.311655   -2.130439   -0.274937
     11          8           0        1.706001   -1.321405    1.921892
     12          1           0        2.320271   -0.876363    2.523243
     13          1           0        1.846075   -0.903237    0.974801
 ---------------------------------------------------------------------
                    Distance matrix (angstroms):
                    1          2          3          4          5
     1  C    0.000000
     2  C    1.476987   0.000000
     3  O    1.399299   2.107852   0.000000
     4  H    1.106097   2.126428   2.077324   0.000000
     5  H    2.275144   1.084007   2.966404   3.010155   0.000000
     6  H    2.196308   1.084402   2.493218   2.478483   1.854730
     7  C    1.527449   2.546853   2.469652   2.164106   2.802325
     8  H    2.176745   2.900408   3.400714   2.488815   2.946334
     9  H    2.152490   3.459134   2.764254   2.507072   3.856232
    10  H    2.170596   2.775813   2.735483   3.079123   2.731858
    11  O    2.889674   2.203291   2.437555   3.873502   2.223659
    12  H    3.538139   2.691899   2.918733   4.395391   2.797961
    13  H    2.274658   2.115661   1.476464   3.231630   2.550435
                    6          7          8          9         10
     6  H    0.000000
     7  C    3.522153   0.000000
     8  H    3.854023   1.097409   0.000000
     9  H    4.332474   1.093595   1.778947   0.000000
    10  H    3.829927   1.094715   1.785116   1.772732   0.000000
    11  O    2.603399   3.535275   4.252749   4.283724   3.090554
    12  H    2.710112   4.402190   5.105767   5.124952   4.040983
    13  H    2.547554   3.040236   3.925368   3.602777   2.779149
                   11         12         13
    11  O    0.000000
    12  H    0.967994   0.000000
    13  H    1.044733   1.619647   0.000000
 Stoichiometry    C3H8O2
 Framework group  C1[X(C3H8O2)]
 Deg. of freedom    33
 Full point group                 C1      NOp   1
 Largest Abelian subgroup         C1      NOp   1
 Largest concise Abelian subgroup C1      NOp   1
                         Standard orientation:                         
 ---------------------------------------------------------------------
 Center     Atomic      Atomic             Coordinates (Angstroms)
 Number     Number       Type             X           Y           Z
 ---------------------------------------------------------------------
      1          6           0       -0.800854    0.192717    0.459714
      2          6           0        0.315393   -0.658181    0.919559
      3          8           0        0.031850    1.234223    0.035562
      4          1           0       -1.423806    0.497408    1.321425
      5          1           0        0.536618   -1.646339    0.532679
      6          1           0        0.866060   -0.325653    1.792553
      7          6           0       -1.692203   -0.405214   -0.627060
      8          1           0       -2.279425   -1.245568   -0.235545
      9          1           0       -2.381581    0.361526   -0.991499
     10          1           0       -1.089958   -0.753420   -1.472314
     11          8           0        1.840191   -0.262649   -0.620907
     12          1           0        2.669899    0.008204   -0.202294
     13          1           0        1.191851    0.555313   -0.575524
 ---------------------------------------------------------------------
 Rotational constants (GHZ):      7.1184665      3.2869655      3.1581952
 Standard basis: 6-31++G(d,p) (6D, 7F)
 There are   143 symmetry adapted basis functions of A   symmetry.
 Integral buffers will be    131072 words long.
 Raffenetti 2 integral format.
 Two-electron integral symmetry is turned on.
   143 basis functions,   224 primitive gaussians,   143 cartesian basis functions
    21 alpha electrons       21 beta electrons
       nuclear repulsion energy       189.7852087024 Hartrees.
 NAtoms=   13 NActive=   13 NUniq=   13 SFac= 1.00D+00 NAtFMM=   50 NAOKFM=F Big=F
 ------------------------------------------------------------------------------
 Polarizable Continuum Model (PCM)
 =================================
 Model                : PCM.
 Atomic radii         : SMD-Coulomb.
 Polarization charges : Total charges.
 Charge compensation  : None.
 Solution method      : Matrix inversion.
 Cavity type          : VdW (van der Waals Surface) (Alpha=1.000).
 Cavity algorithm     : GePol (No added spheres)
                        Default sphere list used, NSphG=   13.
                        Lebedev-Laikov grids with approx.  5.0 points / Ang**2.
                        Smoothing algorithm: Karplus/York (Gamma=1.0000).
                        Polarization charges: spherical gaussians, with
                                              point-specific exponents (IZeta= 3).
                        Self-potential: point-specific (ISelfS= 7).
                        Self-field    : sphere-specific E.n sum rule (ISelfD= 2).
 1st derivatives      : Analytical E(r).r(x)/FMM algorithm (CHGder, D1EAlg=3).
                        Cavity 1st derivative terms included.
 2nd derivatives      : Analytical E(r).r(xy)/FMM algorithm (CHGder, D2EAlg=3).
                        Cavity 2nd derivative terms included.
 Solvent              : Water, Eps=  78.355300 Eps(inf)=   1.777849
 ------------------------------------------------------------------------------
 Spheres list:
 ISph  on   Nord    Re0     Alpha      Xe            Ye            Ze
    1   C      1    1.850   1.000     -0.800854      0.192717      0.459714
    2   C      2    1.850   1.000      0.315393     -0.658181      0.919559
    3   O      3    1.520   1.000      0.031850      1.234223      0.035562
    4   H      4    1.200   1.000     -1.423806      0.497408      1.321425
    5   H      5    1.200   1.000      0.536618     -1.646339      0.532679
    6   H      6    1.200   1.000      0.866060     -0.325653      1.792553
    7   C      7    1.850   1.000     -1.692203     -0.405214     -0.627060
    8   H      8    1.200   1.000     -2.279425     -1.245568     -0.235545
    9   H      9    1.200   1.000     -2.381581      0.361526     -0.991499
   10   H     10    1.200   1.000     -1.089958     -0.753420     -1.472314
   11   O     11    1.520   1.000      1.840191     -0.262649     -0.620907
   12   H     12    1.200   1.000      2.669899      0.008204     -0.202294
   13   H     13    1.200   1.000      1.191851      0.555313     -0.575524
 ------------------------------------------------------------------------------
 ------------------------------------------------------------------------------
 Atomic radii for non-electrostatic terms: SMD-CDS.
 ------------------------------------------------------------------------------
 Nuclear repulsion after PCM non-electrostatic terms =      189.7901835028 Hartrees.
 One-electron integrals computed using PRISM.
 NBasis=   143 RedAO= T  NBF=   143
 NBsUse=   143 1.00D-06 NBFU=   143
 Harris functional with IExCor=  402 diagonalized for initial guess.
 ExpMin= 3.60D-02 ExpMax= 5.48D+03 ExpMxC= 8.25D+02 IAcc=3 IRadAn=         0 AccDes= 0.00D+00
 HarFok:  IExCor=  402 AccDes= 0.00D+00 IRadAn=         0 IDoV= 1
 ScaDFX=  1.000000  1.000000  1.000000  1.000000
 FoFCou: FMM=F IPFlag=           0 FMFlag=      100000 FMFlg1=           0
         NFxFlg=           0 DoJE=T BraDBF=F KetDBF=T FulRan=T
         Omega=  0.000000  0.000000  1.000000  0.000000  0.000000 ICntrl=     500 IOpCl=  0
         NMat0=    1 NMatS0=    1 NMatT0=    0 NMatD0=    1 NMtDS0=    0 NMtDT0=    0
         I1Cent=           4 NGrid=           0.
 Petite list used in FoFCou.
 Initial guess orbital symmetries:
       Occupied  (A) (A) (A) (A) (A) (A) (A) (A) (A) (A) (A) (A)
                 (A) (A) (A) (A) (A) (A) (A) (A) (A)
       Virtual   (A) (A) (A) (A) (A) (A) (A) (A) (A) (A) (A) (A)
                 (A) (A) (A) (A) (A) (A) (A) (A) (A) (A) (A) (A)
                 (A) (A) (A) (A) (A) (A) (A) (A) (A) (A) (A) (A)
                 (A) (A) (A) (A) (A) (A) (A) (A) (A) (A) (A) (A)
                 (A) (A) (A) (A) (A) (A) (A) (A) (A) (A) (A) (A)
                 (A) (A) (A) (A) (A) (A) (A) (A) (A) (A) (A) (A)
                 (A) (A) (A) (A) (A) (A) (A) (A) (A) (A) (A) (A)
                 (A) (A) (A) (A) (A) (A) (A) (A) (A) (A) (A) (A)
                 (A) (A) (A) (A) (A) (A) (A) (A) (A) (A) (A) (A)
                 (A) (A) (A) (A) (A) (A) (A) (A) (A) (A) (A) (A)
                 (A) (A)
 The electronic state of the initial guess is 1-A.
 Requested convergence on RMS density matrix=1.00D-08 within 128 cycles.
 Requested convergence on MAX density matrix=1.00D-06.
 Requested convergence on             energy=1.00D-06.
 No special actions if energy rises.
 Keep R1 ints in memory in canonical form, NReq=57289541.
 Error on total polarization charges =  0.05186
 SCF Done:  E(RB3LYP) =  -269.510257124     A.U. after   14 cycles
             Convg  =    0.1835D-08             -V/T =  2.0096
 SMD-CDS (non-electrostatic) energy       (kcal/mol) =       3.12
 (included in total energy above)
 Range of M.O.s used for correlation:     1   143
 NBasis=   143 NAE=    21 NBE=    21 NFC=     0 NFV=     0
 NROrb=    143 NOA=    21 NOB=    21 NVA=   122 NVB=   122

 **** Warning!!: The largest alpha MO coefficient is  0.38231497D+02

 Symmetrizing basis deriv contribution to polar:
 IMax=3 JMax=2 DiffMx= 0.00D+00
 G2DrvN: will do    14 centers at a time, making    1 passes doing MaxLOS=2.
 Calling FoFCou, ICntrl=  3107 FMM=F I1Cent=   0 AccDes= 0.00D+00.
 FoFDir/FoFCou used for L=0 through L=2.
 G2PCM: DoFxE=T DoFxN=T DoGrad=T DoPD/DQ/DG=FFF NFrqRd=   0 IEInf=0 DoCFld=F IF1Alg=4.
 End of G2Drv Frequency-dependent properties file   721 does not exist.
 End of G2Drv Frequency-dependent properties file   722 does not exist.
          IDoAtm=1111111111111
 NEqPCM:  Using equilibrium solvation (IEInf=0, Eps=  78.3553, EpsInf=   1.7778)
          Differentiating once with respect to nuclear coordinates.
          Keep R1 ints in memory in canonical form, NReq=53833047.
          There are    42 degrees of freedom in the 1st order CPHF.  IDoFFX=5.
     36 vectors produced by pass  0 Test12= 6.10D-11 2.38D-07 XBig12= 1.79D-01 1.76D-01.
 AX will form    36 AO Fock derivatives at one time.
     36 vectors produced by pass  1 Test12= 6.10D-11 2.38D-07 XBig12= 5.91D-02 6.04D-02.
     36 vectors produced by pass  2 Test12= 6.10D-11 2.38D-07 XBig12= 3.18D-04 2.40D-03.
     36 vectors produced by pass  3 Test12= 6.10D-11 2.38D-07 XBig12= 8.61D-07 1.45D-04.
     15 vectors produced by pass  4 Test12= 6.10D-11 2.38D-07 XBig12= 1.66D-09 6.26D-06.
      1 vectors produced by pass  5 Test12= 6.10D-11 2.38D-07 XBig12= 3.37D-12 2.85D-07.
 Inverted reduced A of dimension   160 with in-core refinement.
 End of Minotr Frequency-dependent properties file   721 does not exist.
 End of Minotr Frequency-dependent properties file   722 does not exist.

 **********************************************************************

            Population analysis using the SCF density.

 **********************************************************************

 Orbital symmetries:
       Occupied  (A) (A) (A) (A) (A) (A) (A) (A) (A) (A) (A) (A)
                 (A) (A) (A) (A) (A) (A) (A) (A) (A)
       Virtual   (A) (A) (A) (A) (A) (A) (A) (A) (A) (A) (A) (A)
                 (A) (A) (A) (A) (A) (A) (A) (A) (A) (A) (A) (A)
                 (A) (A) (A) (A) (A) (A) (A) (A) (A) (A) (A) (A)
                 (A) (A) (A) (A) (A) (A) (A) (A) (A) (A) (A) (A)
                 (A) (A) (A) (A) (A) (A) (A) (A) (A) (A) (A) (A)
                 (A) (A) (A) (A) (A) (A) (A) (A) (A) (A) (A) (A)
                 (A) (A) (A) (A) (A) (A) (A) (A) (A) (A) (A) (A)
                 (A) (A) (A) (A) (A) (A) (A) (A) (A) (A) (A) (A)
                 (A) (A) (A) (A) (A) (A) (A) (A) (A) (A) (A) (A)
                 (A) (A) (A) (A) (A) (A) (A) (A) (A) (A) (A) (A)
                 (A) (A)
 The electronic state is 1-A.
 Alpha  occ. eigenvalues --  -19.16665 -19.11447 -10.28435 -10.24394 -10.17394
 Alpha  occ. eigenvalues --   -1.01641  -0.96889  -0.75967  -0.70049  -0.58432
 Alpha  occ. eigenvalues --   -0.52915  -0.48447  -0.46509  -0.43494  -0.40729
 Alpha  occ. eigenvalues --   -0.38014  -0.36839  -0.35796  -0.33677  -0.25451
 Alpha  occ. eigenvalues --   -0.25116
 Alpha virt. eigenvalues --   -0.10366  -0.00049   0.01576   0.02284   0.03458
 Alpha virt. eigenvalues --    0.05045   0.05272   0.05702   0.06380   0.08062
 Alpha virt. eigenvalues --    0.09774   0.11158   0.11599   0.12911   0.13704
 Alpha virt. eigenvalues --    0.14386   0.15329   0.15683   0.17018   0.17572
 Alpha virt. eigenvalues --    0.18110   0.18733   0.20300   0.20835   0.21109
 Alpha virt. eigenvalues --    0.22491   0.24301   0.25926   0.26758   0.27254
 Alpha virt. eigenvalues --    0.28606   0.30078   0.31017   0.32293   0.34417
 Alpha virt. eigenvalues --    0.35657   0.38455   0.39624   0.41785   0.43850
 Alpha virt. eigenvalues --    0.64980   0.66927   0.71212   0.73106   0.76042
 Alpha virt. eigenvalues --    0.76963   0.78410   0.79957   0.88163   0.94622
 Alpha virt. eigenvalues --    0.97304   0.97542   0.99640   1.01665   1.04493
 Alpha virt. eigenvalues --    1.07934   1.12338   1.15608   1.16802   1.18102
 Alpha virt. eigenvalues --    1.20729   1.22884   1.29426   1.31725   1.34776
 Alpha virt. eigenvalues --    1.42563   1.43479   1.46706   1.52496   1.54343
 Alpha virt. eigenvalues --    1.61121   1.63993   1.68511   1.72559   1.77736
 Alpha virt. eigenvalues --    1.78987   1.82507   1.85332   1.88131   1.91620
 Alpha virt. eigenvalues --    2.00624   2.04470   2.05349   2.10293   2.12499
 Alpha virt. eigenvalues --    2.13865   2.14935   2.24367   2.27720   2.31249
 Alpha virt. eigenvalues --    2.35465   2.36654   2.39738   2.41925   2.46817
 Alpha virt. eigenvalues --    2.53972   2.56018   2.60161   2.67151   2.67881
 Alpha virt. eigenvalues --    2.72241   2.74679   2.80386   2.84244   2.85749
 Alpha virt. eigenvalues --    2.92378   3.01109   3.06087   3.08914   3.26202
 Alpha virt. eigenvalues --    3.34952   3.36029   3.43299   3.46275   3.49785
 Alpha virt. eigenvalues --    3.51111   3.71888   4.20397   4.34527   4.41752
 Alpha virt. eigenvalues --    4.51325   4.68379
          Condensed to atoms (all electrons):
              1          2          3          4          5          6
     1  C    5.758719  -0.106925   0.178217   0.353450  -0.074684  -0.027303
     2  C   -0.106925   5.427833  -0.055999  -0.045233   0.389250   0.353831
     3  O    0.178217  -0.055999   8.813816  -0.040160   0.014817   0.003250
     4  H    0.353450  -0.045233  -0.040160   0.611100   0.011212  -0.027055
     5  H   -0.074684   0.389250   0.014817   0.011212   0.483116  -0.040383
     6  H   -0.027303   0.353831   0.003250  -0.027055  -0.040383   0.491568
     7  C   -0.219142   0.140572  -0.097832  -0.040060   0.018630   0.016489
     8  H   -0.058956   0.007292   0.007974  -0.003950  -0.001500  -0.000359
     9  H   -0.039265   0.011313  -0.002032  -0.005805   0.001400  -0.001907
    10  H   -0.040383  -0.022836   0.004778   0.006464   0.001915  -0.000748
    11  O    0.089018   0.034378  -0.162757  -0.001985  -0.045335  -0.005826
    12  H   -0.005007  -0.001858   0.008827   0.000692   0.002376  -0.003469
    13  H   -0.089762   0.020747   0.109467   0.006212   0.006638  -0.003814
              7          8          9         10         11         12
     1  C   -0.219142  -0.058956  -0.039265  -0.040383   0.089018  -0.005007
     2  C    0.140572   0.007292   0.011313  -0.022836   0.034378  -0.001858
     3  O   -0.097832   0.007974  -0.002032   0.004778  -0.162757   0.008827
     4  H   -0.040060  -0.003950  -0.005805   0.006464  -0.001985   0.000692
     5  H    0.018630  -0.001500   0.001400   0.001915  -0.045335   0.002376
     6  H    0.016489  -0.000359  -0.001907  -0.000748  -0.005826  -0.003469
     7  C    5.637926   0.411267   0.396066   0.407951  -0.047379   0.002489
     8  H    0.411267   0.519368  -0.017049  -0.027658  -0.000127  -0.000115
     9  H    0.396066  -0.017049   0.511681  -0.027571   0.001428  -0.000088
    10  H    0.407951  -0.027658  -0.027571   0.506241   0.005575   0.000128
    11  O   -0.047379  -0.000127   0.001428   0.005575   8.460359   0.262202
    12  H    0.002489  -0.000115  -0.000088   0.000128   0.262202   0.324493
    13  H    0.021251   0.001686  -0.001661   0.002284   0.161300  -0.011342
             13
     1  C   -0.089762
     2  C    0.020747
     3  O    0.109467
     4  H    0.006212
     5  H    0.006638
     6  H   -0.003814
     7  C    0.021251
     8  H    0.001686
     9  H   -0.001661
    10  H    0.002284
    11  O    0.161300
    12  H   -0.011342
    13  H    0.318751
 Mulliken atomic charges:
              1
     1  C    0.282022
     2  C   -0.152364
     3  O   -0.782367
     4  H    0.175120
     5  H    0.232548
     6  H    0.245725
     7  C   -0.648229
     8  H    0.162128
     9  H    0.173490
    10  H    0.183860
    11  O   -0.750850
    12  H    0.420672
    13  H    0.458244
 Sum of Mulliken atomic charges =   0.00000
 Mulliken charges with hydrogens summed into heavy atoms:
              1
     1  C    0.457142
     2  C    0.325909
     3  O   -0.782367
     7  C   -0.128750
    11  O    0.128066
 Sum of Mulliken charges with hydrogens summed into heavy atoms =   0.00000
 APT atomic charges:
              1
     1  C   -0.180240
     2  C   -0.527649
     3  O   -0.789776
     4  H    0.466263
     5  H    0.448659
     6  H    0.541037
     7  C   -1.315956
     8  H    0.466156
     9  H    0.474653
    10  H    0.293492
    11  O   -0.988983
    12  H    0.779872
    13  H    0.332472
 Sum of APT charges=   0.00000
 APT Atomic charges with hydrogens summed into heavy atoms:
              1
     1  C    0.286023
     2  C    0.462048
     3  O   -0.789776
     4  H    0.000000
     5  H    0.000000
     6  H    0.000000
     7  C   -0.081655
     8  H    0.000000
     9  H    0.000000
    10  H    0.000000
    11  O    0.123361
    12  H    0.000000
    13  H    0.000000
 Sum of APT charges=   0.00000
 Electronic spatial extent (au):  <R**2>=            481.2676
 Charge=              0.0000 electrons
 Dipole moment (field-independent basis, Debye):
    X=              0.4155    Y=             -4.1476    Z=              3.5439  Tot=              5.4712
 Quadrupole moment (field-independent basis, Debye-Ang):
   XX=            -25.6831   YY=            -37.4753   ZZ=            -30.9344
   XY=              1.7241   XZ=              3.0813   YZ=             -2.5148
 Traceless Quadrupole moment (field-independent basis, Debye-Ang):
   XX=              5.6812   YY=             -6.1111   ZZ=              0.4299
   XY=              1.7241   XZ=              3.0813   YZ=             -2.5148
 Octapole moment (field-independent basis, Debye-Ang**2):
  XXX=             24.5847  YYY=            -13.6266  ZZZ=              8.2513  XYY=              2.1381
  XXY=              5.5478  XXZ=              6.9712  XZZ=              0.7322  YZZ=             -0.5642
  YYZ=              1.0354  XYZ=             -3.1422
 Hexadecapole moment (field-independent basis, Debye-Ang**3):
 XXXX=           -287.7770 YYYY=           -149.9484 ZZZZ=           -122.3123 XXXY=              7.1471
 XXXZ=              6.5360 YYYX=             -0.6610 YYYZ=             -5.1124 ZZZX=              4.1160
 ZZZY=             -2.6648 XXYY=            -81.8490 XXZZ=            -86.3698 YYZZ=            -45.6724
 XXYZ=             -5.5266 YYXZ=             -1.2618 ZZXY=             -0.2881
 N-N= 1.897901835028D+02 E-N=-1.009885385038D+03  KE= 2.669508306113D+02
  Exact polarizability:   0.000   0.000   0.000   0.000   0.000   0.000
 Approx polarizability:  81.062  -6.423  82.667  -8.747  -9.518  71.167
 D2PCM: PCM CHGder 2nd derivatives, FixD1E=F FixD2E=F DoIter=F DoCFld=F I1PDM=0
 Calling FoFJK, ICntrl=    100147 FMM=F ISym2X=0 I1Cent= 0 IOpClX= 0 NMat=1 NMatS=1 NMatT=0.
 ***** Axes restored to original set *****
 -------------------------------------------------------------------
 Center     Atomic                   Forces (Hartrees/Bohr)
 Number     Number              X              Y              Z
 -------------------------------------------------------------------
      1        6          -0.010758120   -0.001611571    0.004203062
      2        6          -0.004204522   -0.002764838    0.006750380
      3        8           0.019302647    0.000489800   -0.014001864
      4        1          -0.000118169   -0.001040522    0.002178627
      5        1          -0.003523157    0.001757004   -0.000716410
      6        1           0.000804856   -0.000098674    0.000746766
      7        6           0.001196298    0.000972710    0.000570377
      8        1           0.001058933    0.000307693    0.000366627
      9        1          -0.000598221    0.000179259   -0.000947786
     10        1          -0.000454574   -0.000425950    0.000416764
     11        8          -0.001921248   -0.001778704   -0.004660408
     12        1           0.000213147    0.003240379    0.001401167
     13        1          -0.000997870    0.000773414    0.003692699
 -------------------------------------------------------------------
 Cartesian Forces:  Max     0.019302647 RMS     0.004698777

 GradGradGradGradGradGradGradGradGradGradGradGradGradGradGradGradGradGrad
 Berny optimization.
 Internal  Forces:  Max     0.017553187 RMS     0.003988573
 Search for a saddle point.
 Step number   1 out of a maximum of   60
 All quantities printed in internal units (Hartrees-Bohrs-Radians)
 Swaping is turned off.
 Second derivative matrix not updated -- analytic derivatives used.
 ITU=  0
     Eigenvalues ---   -0.32706   0.00252   0.00510   0.00701   0.01240
     Eigenvalues ---    0.02702   0.03144   0.04203   0.04377   0.04669
     Eigenvalues ---    0.06295   0.06883   0.08586   0.09420   0.10124
     Eigenvalues ---    0.10519   0.11916   0.12190   0.13029   0.15055
     Eigenvalues ---    0.19255   0.27264   0.30283   0.30712   0.33515
     Eigenvalues ---    0.33946   0.34179   0.34585   0.36725   0.37346
     Eigenvalues ---    0.39396   0.52746   0.78294
 Eigenvectors required to have negative eigenvalues:
                          A10       A18       R7        A1        R1
   1                    0.53081   0.45307   0.34013  -0.28538  -0.22947
                          D7        A3        D3        D1        D9
   1                    0.19718   0.18965   0.18632   0.15620   0.12667
 RFO step:  Lambda0=1.020250550D-03 Lambda=-3.04209476D-03.
 Linear search not attempted -- option 19 set.
 Iteration  1 RMS(Cart)=  0.06188819 RMS(Int)=  0.00438612
 Iteration  2 RMS(Cart)=  0.00455566 RMS(Int)=  0.00006002
 Iteration  3 RMS(Cart)=  0.00002146 RMS(Int)=  0.00005787
 Iteration  4 RMS(Cart)=  0.00000000 RMS(Int)=  0.00005787
 Variable       Old X    -DE/DX   Delta X   Delta X   Delta X     New X
                                 (Linear)    (Quad)   (Total)
    R1        2.79110   0.00681   0.00000  -0.00939  -0.00939   2.78172
    R2        2.64429   0.01755   0.00000   0.03343   0.03343   2.67772
    R3        2.09022  -0.00158   0.00000  -0.00313  -0.00313   2.08710
    R4        2.88646  -0.00153   0.00000  -0.00850  -0.00850   2.87796
    R5        2.04848  -0.00019   0.00000   0.00073   0.00073   2.04921
    R6        2.04922   0.00050   0.00000   0.00135   0.00135   2.05058
    R7        2.79011  -0.00192   0.00000   0.22319   0.22319   3.01331
    R8        2.07380  -0.00101   0.00000  -0.00181  -0.00181   2.07199
    R9        2.06659   0.00085   0.00000   0.00185   0.00185   2.06845
   R10        2.06871   0.00036   0.00000   0.00095   0.00095   2.06967
   R11        1.82924   0.00251   0.00000   0.00390   0.00390   1.83315
   R12        1.97426  -0.00333   0.00000  -0.07690  -0.07690   1.89736
    A1        1.64429   0.00974   0.00000   0.02502   0.02507   1.66936
    A2        1.91961  -0.00088   0.00000  -0.01683  -0.01689   1.90273
    A3        2.02308  -0.00584   0.00000  -0.00475  -0.00479   2.01829
    A4        1.94579  -0.00198   0.00000   0.00274   0.00283   1.94862
    A5        2.00751  -0.00325   0.00000  -0.00670  -0.00671   2.00079
    A6        1.91078   0.00260   0.00000   0.00197   0.00187   1.91265
    A7        2.17521  -0.00151   0.00000  -0.01577  -0.01594   2.15928
    A8        2.04627   0.00128   0.00000   0.01595   0.01578   2.06206
    A9        2.05242   0.00002   0.00000   0.00421   0.00404   2.05645
   A10        1.82425  -0.00947   0.00000   0.00209   0.00209   1.82634
   A11        1.93712  -0.00111   0.00000  -0.01139  -0.01139   1.92573
   A12        1.90764   0.00058   0.00000   0.00803   0.00800   1.91564
   A13        1.93140   0.00050   0.00000   0.00328   0.00324   1.93464
   A14        1.89491   0.00002   0.00000  -0.00279  -0.00277   1.89213
   A15        1.90315  -0.00005   0.00000  -0.00395  -0.00396   1.89919
   A16        1.88862   0.00008   0.00000   0.00716   0.00709   1.89570
   A17        1.86927  -0.00153   0.00000  -0.02635  -0.02635   1.84293
   A18        2.61706  -0.00457   0.00000   0.02778   0.02778   2.64484
    D1       -2.08994  -0.00156   0.00000   0.02782   0.02776  -2.06218
    D2        1.20154   0.00018   0.00000  -0.00799  -0.00806   1.19348
    D3        2.19168  -0.00340   0.00000   0.01815   0.01826   2.20993
    D4       -0.80002  -0.00166   0.00000  -0.01766  -0.01756  -0.81758
    D5        0.01289  -0.00163   0.00000   0.03340   0.03336   0.04626
    D6       -2.97881   0.00012   0.00000  -0.00241  -0.00246  -2.98126
    D7        0.68406  -0.00442   0.00000  -0.06505  -0.06510   0.61896
    D8        2.66342  -0.00141   0.00000  -0.07141  -0.07135   2.59207
    D9       -1.43120  -0.00217   0.00000  -0.07183  -0.07184  -1.50304
   D10        1.19992  -0.00351   0.00000  -0.03651  -0.03651   1.16341
   D11       -2.99377  -0.00381   0.00000  -0.04191  -0.04194  -3.03571
   D12       -0.91556  -0.00304   0.00000  -0.02607  -0.02606  -0.94162
   D13        3.09316   0.00305   0.00000  -0.01182  -0.01182   3.08134
   D14       -1.10053   0.00276   0.00000  -0.01721  -0.01725  -1.11778
   D15        0.97768   0.00353   0.00000  -0.00137  -0.00138   0.97630
   D16       -0.98340   0.00001   0.00000  -0.01171  -0.01168  -0.99508
   D17        1.10610  -0.00028   0.00000  -0.01711  -0.01711   1.08899
   D18       -3.09888   0.00048   0.00000  -0.00127  -0.00124  -3.10011
   D19       -0.53401   0.00380   0.00000   0.07012   0.07012  -0.46389
   D20       -1.80534   0.00417   0.00000   0.09893   0.09893  -1.70642
         Item               Value     Threshold  Converged?
 Maximum Force            0.017553     0.000450     NO 
 RMS     Force            0.003989     0.000300     NO 
 Maximum Displacement     0.202766     0.001800     NO 
 RMS     Displacement     0.064241     0.001200     NO 
 Predicted change in Energy=-1.151743D-03
 GradGradGradGradGradGradGradGradGradGradGradGradGradGradGradGradGradGrad

                          Input orientation:                          
 ---------------------------------------------------------------------
 Center     Atomic      Atomic             Coordinates (Angstroms)
 Number     Number       Type             X           Y           Z
 ---------------------------------------------------------------------
      1          6           0       -0.003877   -0.008198   -0.016269
      2          6           0       -0.013372   -0.017413    1.455693
      3          8           0        1.406886   -0.032220   -0.146756
      4          1           0       -0.429844    0.946328   -0.372957
      5          1           0       -0.456788   -0.808788    2.049848
      6          1           0        0.351436    0.862492    1.975465
      7          6           0       -0.723403   -1.170741   -0.687208
      8          1           0       -1.800851   -1.116036   -0.491451
      9          1           0       -0.566090   -1.128168   -1.769583
     10          1           0       -0.345243   -2.129384   -0.316394
     11          8           0        1.794621   -1.331816    1.980798
     12          1           0        2.323085   -0.769064    2.568210
     13          1           0        1.907971   -0.944015    1.061636
 ---------------------------------------------------------------------
                    Distance matrix (angstroms):
                    1          2          3          4          5
     1  C    0.000000
     2  C    1.472021   0.000000
     3  O    1.416989   2.141307   0.000000
     4  H    1.104443   2.108603   2.093395   0.000000
     5  H    2.261617   1.084396   2.983523   2.991846   0.000000
     6  H    2.202578   1.085118   2.533438   2.476391   1.857939
     7  C    1.522952   2.535022   2.475166   2.160303   2.773729
     8  H    2.163843   2.862416   3.403388   2.479324   2.891212
     9  H    2.155116   3.455673   2.779802   2.504527   3.834319
    10  H    2.169340   2.776842   2.738034   3.077395   2.712106
    11  O    2.995803   2.296133   2.523048   3.959589   2.312395
    12  H    3.559944   2.694755   2.958615   4.378545   2.828068
    13  H    2.385957   2.169200   1.594574   3.331190   2.566502
                    6          7          8          9         10
     6  H    0.000000
     7  C    3.518401   0.000000
     8  H    3.825256   1.096452   0.000000
     9  H    4.339351   1.094575   1.777189   0.000000
    10  H    3.832663   1.095220   1.782221   1.778473   0.000000
    11  O    2.626366   3.672145   4.368752   4.436190   3.239170
    12  H    2.626922   4.476626   5.146723   5.224245   4.158291
    13  H    2.553693   3.167647   4.024553   3.764397   2.895002
                   11         12         13
    11  O    0.000000
    12  H    0.970060   0.000000
    13  H    1.004040   1.572480   0.000000
 Stoichiometry    C3H8O2
 Framework group  C1[X(C3H8O2)]
 Deg. of freedom    33
 Full point group                 C1      NOp   1
 Largest Abelian subgroup         C1      NOp   1
 Largest concise Abelian subgroup C1      NOp   1
                         Standard orientation:                         
 ---------------------------------------------------------------------
 Center     Atomic      Atomic             Coordinates (Angstroms)
 Number     Number       Type             X           Y           Z
 ---------------------------------------------------------------------
      1          6           0       -0.825347    0.104155    0.477600
      2          6           0        0.270010   -0.834134    0.771962
      3          8           0        0.010116    1.223781    0.240329
      4          1           0       -1.438223    0.238461    1.386523
      5          1           0        0.475427   -1.722721    0.185335
      6          1           0        0.839877   -0.685994    1.683437
      7          6           0       -1.723282   -0.277134   -0.691893
      8          1           0       -2.291942   -1.184354   -0.455706
      9          1           0       -2.431907    0.532352   -0.893582
     10          1           0       -1.131124   -0.456663   -1.595566
     11          8           0        1.945765   -0.137563   -0.634758
     12          1           0        2.695820    0.014418   -0.038659
     13          1           0        1.306742    0.617437   -0.462361
 ---------------------------------------------------------------------
 Rotational constants (GHZ):      7.1330418      3.1311411      2.9837014
 Standard basis: 6-31++G(d,p) (6D, 7F)
 There are   143 symmetry adapted basis functions of A   symmetry.
 Integral buffers will be    131072 words long.
 Raffenetti 2 integral format.
 Two-electron integral symmetry is turned on.
   143 basis functions,   224 primitive gaussians,   143 cartesian basis functions
    21 alpha electrons       21 beta electrons
       nuclear repulsion energy       187.4573980035 Hartrees.
 NAtoms=   13 NActive=   13 NUniq=   13 SFac= 1.00D+00 NAtFMM=   50 NAOKFM=F Big=F
 ------------------------------------------------------------------------------
 Polarizable Continuum Model (PCM)
 =================================
 Model                : PCM.
 Atomic radii         : SMD-Coulomb.
 Polarization charges : Total charges.
 Charge compensation  : None.
 Solution method      : Matrix inversion.
 Cavity type          : VdW (van der Waals Surface) (Alpha=1.000).
 Cavity algorithm     : GePol (No added spheres)
                        Default sphere list used, NSphG=   13.
                        Lebedev-Laikov grids with approx.  5.0 points / Ang**2.
                        Smoothing algorithm: Karplus/York (Gamma=1.0000).
                        Polarization charges: spherical gaussians, with
                                              point-specific exponents (IZeta= 3).
                        Self-potential: point-specific (ISelfS= 7).
                        Self-field    : sphere-specific E.n sum rule (ISelfD= 2).
 1st derivatives      : Analytical E(r).r(x)/FMM algorithm (CHGder, D1EAlg=3).
                        Cavity 1st derivative terms included.
 Solvent              : Water, Eps=  78.355300 Eps(inf)=   1.777849
 ------------------------------------------------------------------------------
 Spheres list:
 ISph  on   Nord    Re0     Alpha      Xe            Ye            Ze
    1   C      1    1.850   1.000     -0.825347      0.104155      0.477600
    2   C      2    1.850   1.000      0.270010     -0.834134      0.771962
    3   O      3    1.520   1.000      0.010116      1.223781      0.240329
    4   H      4    1.200   1.000     -1.438223      0.238461      1.386523
    5   H      5    1.200   1.000      0.475427     -1.722721      0.185335
    6   H      6    1.200   1.000      0.839877     -0.685994      1.683437
    7   C      7    1.850   1.000     -1.723282     -0.277134     -0.691893
    8   H      8    1.200   1.000     -2.291942     -1.184354     -0.455706
    9   H      9    1.200   1.000     -2.431907      0.532352     -0.893582
   10   H     10    1.200   1.000     -1.131124     -0.456663     -1.595566
   11   O     11    1.520   1.000      1.945765     -0.137563     -0.634758
   12   H     12    1.200   1.000      2.695820      0.014418     -0.038659
   13   H     13    1.200   1.000      1.306742      0.617437     -0.462361
 ------------------------------------------------------------------------------
 ------------------------------------------------------------------------------
 Atomic radii for non-electrostatic terms: SMD-CDS.
 ------------------------------------------------------------------------------
 Nuclear repulsion after PCM non-electrostatic terms =      187.4622310746 Hartrees.
 One-electron integrals computed using PRISM.
 NBasis=   143 RedAO= T  NBF=   143
 NBsUse=   143 1.00D-06 NBFU=   143
 Initial guess read from the read-write file.
 B after Tr=     0.000000    0.000000    0.000000
         Rot=    1.000000    0.000000    0.000000    0.000000 Ang=   0.00 deg.
 Initial guess orbital symmetries:
       Occupied  (A) (A) (A) (A) (A) (A) (A) (A) (A) (A) (A) (A)
                 (A) (A) (A) (A) (A) (A) (A) (A) (A)
       Virtual   (A) (A) (A) (A) (A) (A) (A) (A) (A) (A) (A) (A)
                 (A) (A) (A) (A) (A) (A) (A) (A) (A) (A) (A) (A)
                 (A) (A) (A) (A) (A) (A) (A) (A) (A) (A) (A) (A)
                 (A) (A) (A) (A) (A) (A) (A) (A) (A) (A) (A) (A)
                 (A) (A) (A) (A) (A) (A) (A) (A) (A) (A) (A) (A)
                 (A) (A) (A) (A) (A) (A) (A) (A) (A) (A) (A) (A)
                 (A) (A) (A) (A) (A) (A) (A) (A) (A) (A) (A) (A)
                 (A) (A) (A) (A) (A) (A) (A) (A) (A) (A) (A) (A)
                 (A) (A) (A) (A) (A) (A) (A) (A) (A) (A) (A) (A)
                 (A) (A) (A) (A) (A) (A) (A) (A) (A) (A) (A) (A)
                 (A) (A)
 Harris functional with IExCor=  402 diagonalized for initial guess.
 ExpMin= 3.60D-02 ExpMax= 5.48D+03 ExpMxC= 8.25D+02 IAcc=3 IRadAn=         0 AccDes= 0.00D+00
 HarFok:  IExCor=  402 AccDes= 0.00D+00 IRadAn=         0 IDoV= 1
 ScaDFX=  1.000000  1.000000  1.000000  1.000000
 FoFCou: FMM=F IPFlag=           0 FMFlag=      100000 FMFlg1=           0
         NFxFlg=           0 DoJE=T BraDBF=F KetDBF=T FulRan=T
         Omega=  0.000000  0.000000  1.000000  0.000000  0.000000 ICntrl=     500 IOpCl=  0
         NMat0=    1 NMatS0=    1 NMatT0=    0 NMatD0=    1 NMtDS0=    0 NMtDT0=    0
         I1Cent=           4 NGrid=           0.
 Petite list used in FoFCou.
 Requested convergence on RMS density matrix=1.00D-08 within 128 cycles.
 Requested convergence on MAX density matrix=1.00D-06.
 Requested convergence on             energy=1.00D-06.
 No special actions if energy rises.
 Keep R1 ints in memory in canonical form, NReq=57300809.
 Error on total polarization charges =  0.05224
 SCF Done:  E(RB3LYP) =  -269.511290024     A.U. after   12 cycles
             Convg  =    0.5907D-08             -V/T =  2.0097
 SMD-CDS (non-electrostatic) energy       (kcal/mol) =       3.03
 (included in total energy above)
 D1PCM: PCM CHGder 1st derivatives, ID1Alg=3 FixD1E=F DoIter=F DoCFld=F I1PDM=0.
 Calling FoFJK, ICntrl=      2127 FMM=F ISym2X=0 I1Cent= 0 IOpClX= 0 NMat=1 NMatS=1 NMatT=0.
 ***** Axes restored to original set *****
 -------------------------------------------------------------------
 Center     Atomic                   Forces (Hartrees/Bohr)
 Number     Number              X              Y              Z
 -------------------------------------------------------------------
      1        6           0.000466318    0.000242572    0.000106868
      2        6           0.000010836   -0.000758126    0.000603976
      3        8          -0.000296832    0.000191629   -0.001797618
      4        1           0.000099779   -0.000020282    0.000211950
      5        1          -0.000261600    0.000283326    0.000207470
      6        1           0.000118554   -0.000169289    0.000198268
      7        6           0.000166978    0.000130830   -0.000064318
      8        1          -0.000030113   -0.000107855   -0.000133328
      9        1          -0.000137106    0.000005734   -0.000033711
     10        1           0.000011722    0.000043149   -0.000004417
     11        8          -0.000577570   -0.002644592    0.006014611
     12        1          -0.000293946    0.000274233    0.000455011
     13        1           0.000722980    0.002528672   -0.005764761
 -------------------------------------------------------------------
 Cartesian Forces:  Max     0.006014611 RMS     0.001510944

 GradGradGradGradGradGradGradGradGradGradGradGradGradGradGradGradGradGrad
 Berny optimization.
 Internal  Forces:  Max     0.006975418 RMS     0.001073661
 Search for a saddle point.
 Step number   2 out of a maximum of   60
 All quantities printed in internal units (Hartrees-Bohrs-Radians)
 Swaping is turned off.
 Update second derivatives using D2CorX and points    1    2
 ITU=  0  0
     Eigenvalues ---   -0.32413   0.00248   0.00509   0.00623   0.01499
     Eigenvalues ---    0.02555   0.03107   0.04203   0.04376   0.04627
     Eigenvalues ---    0.06308   0.06887   0.08570   0.09494   0.10132
     Eigenvalues ---    0.10522   0.11917   0.12191   0.13028   0.15064
     Eigenvalues ---    0.19246   0.27276   0.30294   0.30696   0.33514
     Eigenvalues ---    0.33946   0.34574   0.34828   0.36724   0.37347
     Eigenvalues ---    0.39375   0.52746   0.78363
 Eigenvectors required to have negative eigenvalues:
                          A10       A18       R7        A1        R1
   1                    0.53240   0.45382   0.32679  -0.28901  -0.22910
                          D7        A3        D3        D1        D9
   1                    0.20209   0.19132   0.18512   0.15532   0.13198
 RFO step:  Lambda0=1.896524218D-05 Lambda=-2.71128931D-04.
 Linear search not attempted -- option 19 set.
 Iteration  1 RMS(Cart)=  0.03021189 RMS(Int)=  0.00078049
 Iteration  2 RMS(Cart)=  0.00065893 RMS(Int)=  0.00000497
 Iteration  3 RMS(Cart)=  0.00000069 RMS(Int)=  0.00000495
 Variable       Old X    -DE/DX   Delta X   Delta X   Delta X     New X
                                 (Linear)    (Quad)   (Total)
    R1        2.78172   0.00097   0.00000  -0.00026  -0.00026   2.78146
    R2        2.67772  -0.00039   0.00000   0.00150   0.00150   2.67922
    R3        2.08710  -0.00013   0.00000  -0.00122  -0.00122   2.08587
    R4        2.87796   0.00006   0.00000  -0.00164  -0.00164   2.87632
    R5        2.04921  -0.00001   0.00000  -0.00011  -0.00011   2.04910
    R6        2.05058   0.00001   0.00000   0.00008   0.00008   2.05066
    R7        3.01331   0.00043   0.00000  -0.02189  -0.02189   2.99142
    R8        2.07199   0.00000   0.00000   0.00011   0.00011   2.07210
    R9        2.06845   0.00001   0.00000   0.00001   0.00001   2.06846
   R10        2.06967  -0.00003   0.00000   0.00003   0.00003   2.06970
   R11        1.83315   0.00028   0.00000   0.00031   0.00031   1.83346
   R12        1.89736   0.00698   0.00000   0.02883   0.02883   1.92619
    A1        1.66936   0.00028   0.00000  -0.00185  -0.00185   1.66751
    A2        1.90273   0.00015   0.00000  -0.00035  -0.00036   1.90237
    A3        2.01829  -0.00032   0.00000   0.00338   0.00338   2.02167
    A4        1.94862  -0.00018   0.00000  -0.00367  -0.00367   1.94496
    A5        2.00079  -0.00002   0.00000  -0.00170  -0.00169   1.99910
    A6        1.91265   0.00009   0.00000   0.00334   0.00334   1.91599
    A7        2.15928   0.00022   0.00000  -0.00034  -0.00036   2.15892
    A8        2.06206   0.00008   0.00000   0.00330   0.00329   2.06534
    A9        2.05645  -0.00031   0.00000  -0.00196  -0.00197   2.05448
   A10        1.82634  -0.00175   0.00000   0.01859   0.01859   1.84493
   A11        1.92573   0.00021   0.00000   0.00135   0.00135   1.92707
   A12        1.91564   0.00011   0.00000   0.00115   0.00115   1.91679
   A13        1.93464  -0.00008   0.00000  -0.00150  -0.00150   1.93313
   A14        1.89213  -0.00018   0.00000  -0.00178  -0.00178   1.89036
   A15        1.89919  -0.00006   0.00000  -0.00041  -0.00041   1.89877
   A16        1.89570   0.00000   0.00000   0.00117   0.00117   1.89688
   A17        1.84293   0.00054   0.00000  -0.00024  -0.00024   1.84269
   A18        2.64484  -0.00084   0.00000   0.02579   0.02579   2.67062
    D1       -2.06218  -0.00023   0.00000   0.03017   0.03017  -2.03201
    D2        1.19348  -0.00014   0.00000   0.01970   0.01970   1.21318
    D3        2.20993  -0.00020   0.00000   0.03506   0.03506   2.24499
    D4       -0.81758  -0.00010   0.00000   0.02459   0.02459  -0.79300
    D5        0.04626  -0.00021   0.00000   0.02839   0.02839   0.07464
    D6       -2.98126  -0.00011   0.00000   0.01791   0.01791  -2.96335
    D7        0.61896  -0.00086   0.00000  -0.03733  -0.03733   0.58163
    D8        2.59207  -0.00060   0.00000  -0.03960  -0.03960   2.55247
    D9       -1.50304  -0.00065   0.00000  -0.03951  -0.03950  -1.54255
   D10        1.16341  -0.00003   0.00000  -0.01275  -0.01275   1.15066
   D11       -3.03571  -0.00005   0.00000  -0.01338  -0.01338  -3.04909
   D12       -0.94162  -0.00004   0.00000  -0.01214  -0.01213  -0.95376
   D13        3.08134   0.00012   0.00000  -0.01405  -0.01405   3.06729
   D14       -1.11778   0.00009   0.00000  -0.01468  -0.01468  -1.13246
   D15        0.97630   0.00011   0.00000  -0.01343  -0.01343   0.96287
   D16       -0.99508  -0.00006   0.00000  -0.01754  -0.01754  -1.01262
   D17        1.08899  -0.00009   0.00000  -0.01817  -0.01818   1.07081
   D18       -3.10011  -0.00007   0.00000  -0.01692  -0.01693  -3.11704
   D19       -0.46389   0.00076   0.00000   0.02791   0.02791  -0.43598
   D20       -1.70642   0.00085   0.00000   0.04487   0.04487  -1.66155
         Item               Value     Threshold  Converged?
 Maximum Force            0.006975     0.000450     NO 
 RMS     Force            0.001074     0.000300     NO 
 Maximum Displacement     0.100771     0.001800     NO 
 RMS     Displacement     0.029996     0.001200     NO 
 Predicted change in Energy=-1.282385D-04
 GradGradGradGradGradGradGradGradGradGradGradGradGradGradGradGradGradGrad

                          Input orientation:                          
 ---------------------------------------------------------------------
 Center     Atomic      Atomic             Coordinates (Angstroms)
 Number     Number       Type             X           Y           Z
 ---------------------------------------------------------------------
      1          6           0       -0.003120   -0.019142   -0.019875
      2          6           0       -0.012932   -0.033109    1.451909
      3          8           0        1.408008   -0.068672   -0.147852
      4          1           0       -0.406583    0.945773   -0.372748
      5          1           0       -0.447211   -0.831681    2.043067
      6          1           0        0.349919    0.844053    1.977739
      7          6           0       -0.740066   -1.164788   -0.698954
      8          1           0       -1.815591   -1.102019   -0.494895
      9          1           0       -0.591880   -1.111237   -1.782135
     10          1           0       -0.368943   -2.131218   -0.341428
     11          8           0        1.832076   -1.322531    2.012835
     12          1           0        2.322002   -0.715739    2.589992
     13          1           0        1.918853   -0.936712    1.073377
 ---------------------------------------------------------------------
                    Distance matrix (angstroms):
                    1          2          3          4          5
     1  C    0.000000
     2  C    1.471883   0.000000
     3  O    1.417784   2.139993   0.000000
     4  H    1.103795   2.107735   2.091033   0.000000
     5  H    2.261232   1.084335   2.970547   2.999526   0.000000
     6  H    2.204588   1.085160   2.543769   2.471322   1.856816
     7  C    1.522085   2.536855   2.473742   2.161502   2.777662
     8  H    2.164097   2.860453   3.402915   2.488710   2.895997
     9  H    2.155196   3.457829   2.785206   2.500400   3.838132
    10  H    2.167507   2.782959   2.729308   3.077381   2.716752
    11  O    3.032932   2.319764   2.533883   3.980930   2.331737
    12  H    3.564105   2.685728   2.958018   4.357020   2.825086
    13  H    2.393975   2.166006   1.582990   3.323053   2.559217
                    6          7          8          9         10
     6  H    0.000000
     7  C    3.519687   0.000000
     8  H    3.819758   1.096511   0.000000
     9  H    4.341290   1.094581   1.776102   0.000000
    10  H    3.840253   1.095237   1.782020   1.779241   0.000000
    11  O    2.625283   3.740935   4.432021   4.507994   3.322802
    12  H    2.587840   4.516090   5.175463   5.269025   4.223505
    13  H    2.539794   3.203596   4.053749   3.806336   2.943218
                   11         12         13
    11  O    0.000000
    12  H    0.970224   0.000000
    13  H    1.019297   1.584765   0.000000
 Stoichiometry    C3H8O2
 Framework group  C1[X(C3H8O2)]
 Deg. of freedom    33
 Full point group                 C1      NOp   1
 Largest Abelian subgroup         C1      NOp   1
 Largest concise Abelian subgroup C1      NOp   1
                         Standard orientation:                         
 ---------------------------------------------------------------------
 Center     Atomic      Atomic             Coordinates (Angstroms)
 Number     Number       Type             X           Y           Z
 ---------------------------------------------------------------------
      1          6           0       -0.830895    0.065444    0.482611
      2          6           0        0.261430   -0.900046    0.685336
      3          8           0        0.012161    1.193380    0.317907
      4          1           0       -1.423946    0.137149    1.410789
      5          1           0        0.466211   -1.726474    0.013873
      6          1           0        0.837478   -0.840820    1.603069
      7          6           0       -1.751861   -0.213032   -0.696801
      8          1           0       -2.316574   -1.138197   -0.530959
      9          1           0       -2.465137    0.609065   -0.812995
     10          1           0       -1.176676   -0.312099   -1.623566
     11          8           0        1.986151   -0.080263   -0.631705
     12          1           0        2.702197    0.000215    0.018015
     13          1           0        1.317902    0.652027   -0.394718
 ---------------------------------------------------------------------
 Rotational constants (GHZ):      7.2706919      3.0715074      2.9168885
 Standard basis: 6-31++G(d,p) (6D, 7F)
 There are   143 symmetry adapted basis functions of A   symmetry.
 Integral buffers will be    131072 words long.
 Raffenetti 2 integral format.
 Two-electron integral symmetry is turned on.
   143 basis functions,   224 primitive gaussians,   143 cartesian basis functions
    21 alpha electrons       21 beta electrons
       nuclear repulsion energy       186.9133936639 Hartrees.
 NAtoms=   13 NActive=   13 NUniq=   13 SFac= 1.00D+00 NAtFMM=   50 NAOKFM=F Big=F
 ------------------------------------------------------------------------------
 Polarizable Continuum Model (PCM)
 =================================
 Model                : PCM.
 Atomic radii         : SMD-Coulomb.
 Polarization charges : Total charges.
 Charge compensation  : None.
 Solution method      : Matrix inversion.
 Cavity type          : VdW (van der Waals Surface) (Alpha=1.000).
 Cavity algorithm     : GePol (No added spheres)
                        Default sphere list used, NSphG=   13.
                        Lebedev-Laikov grids with approx.  5.0 points / Ang**2.
                        Smoothing algorithm: Karplus/York (Gamma=1.0000).
                        Polarization charges: spherical gaussians, with
                                              point-specific exponents (IZeta= 3).
                        Self-potential: point-specific (ISelfS= 7).
                        Self-field    : sphere-specific E.n sum rule (ISelfD= 2).
 1st derivatives      : Analytical E(r).r(x)/FMM algorithm (CHGder, D1EAlg=3).
                        Cavity 1st derivative terms included.
 Solvent              : Water, Eps=  78.355300 Eps(inf)=   1.777849
 ------------------------------------------------------------------------------
 Spheres list:
 ISph  on   Nord    Re0     Alpha      Xe            Ye            Ze
    1   C      1    1.850   1.000     -0.830895      0.065444      0.482611
    2   C      2    1.850   1.000      0.261430     -0.900046      0.685336
    3   O      3    1.520   1.000      0.012161      1.193380      0.317907
    4   H      4    1.200   1.000     -1.423946      0.137149      1.410789
    5   H      5    1.200   1.000      0.466211     -1.726474      0.013873
    6   H      6    1.200   1.000      0.837478     -0.840820      1.603069
    7   C      7    1.850   1.000     -1.751861     -0.213032     -0.696801
    8   H      8    1.200   1.000     -2.316574     -1.138197     -0.530959
    9   H      9    1.200   1.000     -2.465137      0.609065     -0.812995
   10   H     10    1.200   1.000     -1.176676     -0.312099     -1.623566
   11   O     11    1.520   1.000      1.986151     -0.080263     -0.631705
   12   H     12    1.200   1.000      2.702197      0.000215      0.018015
   13   H     13    1.200   1.000      1.317902      0.652027     -0.394718
 ------------------------------------------------------------------------------
 ------------------------------------------------------------------------------
 Atomic radii for non-electrostatic terms: SMD-CDS.
 ------------------------------------------------------------------------------
 Nuclear repulsion after PCM non-electrostatic terms =      186.9181975382 Hartrees.
 One-electron integrals computed using PRISM.
 NBasis=   143 RedAO= T  NBF=   143
 NBsUse=   143 1.00D-06 NBFU=   143
 Initial guess read from the read-write file.
 B after Tr=     0.000000    0.000000    0.000000
         Rot=    1.000000    0.000000    0.000000    0.000000 Ang=   0.00 deg.
 Initial guess orbital symmetries:
       Occupied  (A) (A) (A) (A) (A) (A) (A) (A) (A) (A) (A) (A)
                 (A) (A) (A) (A) (A) (A) (A) (A) (A)
       Virtual   (A) (A) (A) (A) (A) (A) (A) (A) (A) (A) (A) (A)
                 (A) (A) (A) (A) (A) (A) (A) (A) (A) (A) (A) (A)
                 (A) (A) (A) (A) (A) (A) (A) (A) (A) (A) (A) (A)
                 (A) (A) (A) (A) (A) (A) (A) (A) (A) (A) (A) (A)
                 (A) (A) (A) (A) (A) (A) (A) (A) (A) (A) (A) (A)
                 (A) (A) (A) (A) (A) (A) (A) (A) (A) (A) (A) (A)
                 (A) (A) (A) (A) (A) (A) (A) (A) (A) (A) (A) (A)
                 (A) (A) (A) (A) (A) (A) (A) (A) (A) (A) (A) (A)
                 (A) (A) (A) (A) (A) (A) (A) (A) (A) (A) (A) (A)
                 (A) (A) (A) (A) (A) (A) (A) (A) (A) (A) (A) (A)
                 (A) (A)
 Harris functional with IExCor=  402 diagonalized for initial guess.
 ExpMin= 3.60D-02 ExpMax= 5.48D+03 ExpMxC= 8.25D+02 IAcc=3 IRadAn=         0 AccDes= 0.00D+00
 HarFok:  IExCor=  402 AccDes= 0.00D+00 IRadAn=         0 IDoV= 1
 ScaDFX=  1.000000  1.000000  1.000000  1.000000
 FoFCou: FMM=F IPFlag=           0 FMFlag=      100000 FMFlg1=           0
         NFxFlg=           0 DoJE=T BraDBF=F KetDBF=T FulRan=T
         Omega=  0.000000  0.000000  1.000000  0.000000  0.000000 ICntrl=     500 IOpCl=  0
         NMat0=    1 NMatS0=    1 NMatT0=    0 NMatD0=    1 NMtDS0=    0 NMtDT0=    0
         I1Cent=           4 NGrid=           0.
 Petite list used in FoFCou.
 Requested convergence on RMS density matrix=1.00D-08 within 128 cycles.
 Requested convergence on MAX density matrix=1.00D-06.
 Requested convergence on             energy=1.00D-06.
 No special actions if energy rises.
 Keep R1 ints in memory in canonical form, NReq=57292557.
 Error on total polarization charges =  0.05238
 SCF Done:  E(RB3LYP) =  -269.511389119     A.U. after   12 cycles
             Convg  =    0.2383D-08             -V/T =  2.0098
 SMD-CDS (non-electrostatic) energy       (kcal/mol) =       3.01
 (included in total energy above)
 D1PCM: PCM CHGder 1st derivatives, ID1Alg=3 FixD1E=F DoIter=F DoCFld=F I1PDM=0.
 Calling FoFJK, ICntrl=      2127 FMM=F ISym2X=0 I1Cent= 0 IOpClX= 0 NMat=1 NMatS=1 NMatT=0.
 ***** Axes restored to original set *****
 -------------------------------------------------------------------
 Center     Atomic                   Forces (Hartrees/Bohr)
 Number     Number              X              Y              Z
 -------------------------------------------------------------------
      1        6          -0.000441509    0.000616674   -0.000304947
      2        6           0.000510607    0.000116251   -0.000283261
      3        8          -0.000284783   -0.000222328    0.000768929
      4        1          -0.000064333   -0.000108206   -0.000270854
      5        1          -0.000040785   -0.000233024   -0.000117539
      6        1           0.000032516    0.000053660   -0.000151725
      7        6          -0.000099029   -0.000059197    0.000229509
      8        1          -0.000019094   -0.000001277   -0.000013192
      9        1           0.000069343   -0.000045882    0.000026711
     10        1          -0.000051792   -0.000042048   -0.000070965
     11        8           0.000516753    0.001035936   -0.002697573
     12        1           0.000046672   -0.000153845    0.000071685
     13        1          -0.000174565   -0.000956713    0.002813221
 -------------------------------------------------------------------
 Cartesian Forces:  Max     0.002813221 RMS     0.000707508

 GradGradGradGradGradGradGradGradGradGradGradGradGradGradGradGradGradGrad
 Berny optimization.
 Internal  Forces:  Max     0.002797792 RMS     0.000490787
 Search for a saddle point.
 Step number   3 out of a maximum of   60
 All quantities printed in internal units (Hartrees-Bohrs-Radians)
 Swaping is turned off.
 Update second derivatives using D2CorX and points    1    2    3
 ITU=  0  0  0
     Eigenvalues ---   -0.32752   0.00077   0.00377   0.00606   0.01586
     Eigenvalues ---    0.02589   0.03067   0.04204   0.04376   0.04657
     Eigenvalues ---    0.06304   0.06896   0.08590   0.09498   0.10147
     Eigenvalues ---    0.10551   0.11917   0.12191   0.13034   0.15065
     Eigenvalues ---    0.19287   0.27276   0.30298   0.30740   0.33515
     Eigenvalues ---    0.33946   0.34579   0.35444   0.36726   0.37348
     Eigenvalues ---    0.39385   0.52746   0.78364
 Eigenvectors required to have negative eigenvalues:
                          A10       A18       R7        A1        R1
   1                   -0.53656  -0.46052  -0.32567   0.28717   0.22863
                          D3        A3        D7        D1        D5
   1                   -0.19589  -0.19049  -0.18493  -0.16529  -0.12094
 RFO step:  Lambda0=1.125202205D-05 Lambda=-6.83975662D-05.
 Linear search not attempted -- option 19 set.
 Iteration  1 RMS(Cart)=  0.03631896 RMS(Int)=  0.00065667
 Iteration  2 RMS(Cart)=  0.00104145 RMS(Int)=  0.00001555
 Iteration  3 RMS(Cart)=  0.00000084 RMS(Int)=  0.00001553
 Variable       Old X    -DE/DX   Delta X   Delta X   Delta X     New X
                                 (Linear)    (Quad)   (Total)
    R1        2.78146  -0.00054   0.00000   0.00251   0.00251   2.78397
    R2        2.67922   0.00003   0.00000  -0.00027  -0.00027   2.67895
    R3        2.08587   0.00002   0.00000   0.00016   0.00016   2.08603
    R4        2.87632   0.00007   0.00000   0.00046   0.00046   2.87679
    R5        2.04910   0.00013   0.00000   0.00078   0.00078   2.04988
    R6        2.05066  -0.00002   0.00000  -0.00028  -0.00028   2.05038
    R7        2.99142   0.00032   0.00000   0.02856   0.02856   3.01997
    R8        2.07210   0.00001   0.00000   0.00033   0.00033   2.07243
    R9        2.06846  -0.00001   0.00000   0.00016   0.00016   2.06862
   R10        2.06970  -0.00001   0.00000   0.00024   0.00024   2.06994
   R11        1.83346  -0.00004   0.00000   0.00010   0.00010   1.83356
   R12        1.92619  -0.00280   0.00000  -0.02119  -0.02119   1.90500
    A1        1.66751  -0.00054   0.00000   0.00368   0.00368   1.67119
    A2        1.90237   0.00026   0.00000   0.00239   0.00238   1.90475
    A3        2.02167   0.00009   0.00000  -0.00372  -0.00372   2.01795
    A4        1.94496   0.00009   0.00000  -0.00080  -0.00080   1.94415
    A5        1.99910   0.00032   0.00000   0.00083   0.00084   1.99994
    A6        1.91599  -0.00022   0.00000  -0.00171  -0.00171   1.91428
    A7        2.15892  -0.00022   0.00000  -0.00730  -0.00737   2.15155
    A8        2.06534  -0.00004   0.00000   0.00263   0.00257   2.06791
    A9        2.05448   0.00026   0.00000   0.00287   0.00281   2.05729
   A10        1.84493   0.00143   0.00000   0.01415   0.01415   1.85908
   A11        1.92707   0.00001   0.00000   0.00099   0.00099   1.92806
   A12        1.91679  -0.00007   0.00000   0.00023   0.00023   1.91702
   A13        1.93313   0.00014   0.00000   0.00041   0.00041   1.93354
   A14        1.89036   0.00002   0.00000  -0.00016  -0.00016   1.89019
   A15        1.89877  -0.00005   0.00000  -0.00003  -0.00003   1.89875
   A16        1.89688  -0.00007   0.00000  -0.00149  -0.00149   1.89538
   A17        1.84269   0.00026   0.00000   0.00955   0.00955   1.85224
   A18        2.67062   0.00077   0.00000  -0.00847  -0.00847   2.66215
    D1       -2.03201  -0.00001   0.00000   0.00869   0.00870  -2.02331
    D2        1.21318  -0.00005   0.00000   0.02947   0.02948   1.24266
    D3        2.24499   0.00006   0.00000   0.00737   0.00736   2.25236
    D4       -0.79300   0.00002   0.00000   0.02815   0.02814  -0.76486
    D5        0.07464   0.00007   0.00000   0.01047   0.01047   0.08512
    D6       -2.96335   0.00003   0.00000   0.03125   0.03125  -2.93210
    D7        0.58163   0.00010   0.00000  -0.05485  -0.05485   0.52678
    D8        2.55247   0.00016   0.00000  -0.05070  -0.05070   2.50176
    D9       -1.54255   0.00020   0.00000  -0.05302  -0.05303  -1.59557
   D10        1.15066   0.00025   0.00000  -0.03193  -0.03193   1.11874
   D11       -3.04909   0.00025   0.00000  -0.03137  -0.03136  -3.08045
   D12       -0.95376   0.00021   0.00000  -0.03282  -0.03281  -0.98657
   D13        3.06729  -0.00017   0.00000  -0.02907  -0.02907   3.03822
   D14       -1.13246  -0.00018   0.00000  -0.02850  -0.02850  -1.16097
   D15        0.96287  -0.00022   0.00000  -0.02995  -0.02995   0.93292
   D16       -1.01262   0.00001   0.00000  -0.03091  -0.03091  -1.04353
   D17        1.07081   0.00001   0.00000  -0.03034  -0.03035   1.04046
   D18       -3.11704  -0.00003   0.00000  -0.03180  -0.03180   3.13435
   D19       -0.43598  -0.00004   0.00000   0.06889   0.06889  -0.36709
   D20       -1.66155  -0.00020   0.00000  -0.01915  -0.01915  -1.68070
         Item               Value     Threshold  Converged?
 Maximum Force            0.002798     0.000450     NO 
 RMS     Force            0.000491     0.000300     NO 
 Maximum Displacement     0.099149     0.001800     NO 
 RMS     Displacement     0.035964     0.001200     NO 
 Predicted change in Energy=-2.948226D-05
 GradGradGradGradGradGradGradGradGradGradGradGradGradGradGradGradGradGrad

                          Input orientation:                          
 ---------------------------------------------------------------------
 Center     Atomic      Atomic             Coordinates (Angstroms)
 Number     Number       Type             X           Y           Z
 ---------------------------------------------------------------------
      1          6           0        0.005847   -0.031560   -0.026437
      2          6           0       -0.004237   -0.055723    1.446542
      3          8           0        1.415045   -0.108879   -0.160161
      4          1           0       -0.378816    0.942661   -0.374976
      5          1           0       -0.450163   -0.857303    2.025590
      6          1           0        0.349964    0.819673    1.980841
      7          6           0       -0.757906   -1.158042   -0.708499
      8          1           0       -1.827591   -1.091956   -0.475860
      9          1           0       -0.637062   -1.084737   -1.794002
     10          1           0       -0.385209   -2.134487   -0.380670
     11          8           0        1.853139   -1.291667    2.039384
     12          1           0        2.314744   -0.663271    2.616861
     13          1           0        1.946777   -0.931730    1.102418
 ---------------------------------------------------------------------
                    Distance matrix (angstroms):
                    1          2          3          4          5
     1  C    0.000000
     2  C    1.473212   0.000000
     3  O    1.417639   2.144454   0.000000
     4  H    1.103880   2.110689   2.090412   0.000000
     5  H    2.258454   1.084748   2.969284   3.001279   0.000000
     6  H    2.207302   1.085012   2.565248   2.469032   1.858617
     7  C    1.522329   2.535217   2.474497   2.160532   2.767741
     8  H    2.165159   2.845000   3.403056   2.499758   2.865243
     9  H    2.155643   3.458390   2.798728   2.488105   3.830919
    10  H    2.168111   2.793762   2.718939   3.077160   2.724977
    11  O    3.044335   2.308434   2.535530   3.975297   2.343942
    12  H    3.566103   2.667665   2.971305   4.334210   2.834072
    13  H    2.419056   2.166164   1.598101   3.332329   2.569651
                    6          7          8          9         10
     6  H    0.000000
     7  C    3.517283   0.000000
     8  H    3.798875   1.096683   0.000000
     9  H    4.341709   1.094666   1.776206   0.000000
    10  H    3.852827   1.095363   1.782245   1.778458   0.000000
    11  O    2.592436   3.792924   4.462523   4.575891   3.402530
    12  H    2.542441   4.554557   5.187257   5.324144   4.294114
    13  H    2.527618   3.262813   4.094201   3.884442   3.014023
                   11         12         13
    11  O    0.000000
    12  H    0.970278   0.000000
    13  H    1.008082   1.581457   0.000000
 Stoichiometry    C3H8O2
 Framework group  C1[X(C3H8O2)]
 Deg. of freedom    33
 Full point group                 C1      NOp   1
 Largest Abelian subgroup         C1      NOp   1
 Largest concise Abelian subgroup C1      NOp   1
                         Standard orientation:                         
 ---------------------------------------------------------------------
 Center     Atomic      Atomic             Coordinates (Angstroms)
 Number     Number       Type             X           Y           Z
 ---------------------------------------------------------------------
      1          6           0       -0.827777    0.058147    0.483689
      2          6           0        0.266131   -0.916720    0.636512
      3          8           0        0.011463    1.188565    0.317763
      4          1           0       -1.396903    0.114333    1.427876
      5          1           0        0.446784   -1.723490   -0.065744
      6          1           0        0.851425   -0.898703    1.549944
      7          6           0       -1.781130   -0.198528   -0.675071
      8          1           0       -2.320721   -1.141588   -0.526097
      9          1           0       -2.515117    0.611117   -0.738565
     10          1           0       -1.235274   -0.250350   -1.623319
     11          8           0        2.008938   -0.064391   -0.614498
     12          1           0        2.711354   -0.023656    0.053628
     13          1           0        1.351909    0.661557   -0.374622
 ---------------------------------------------------------------------
 Rotational constants (GHZ):      7.4392039      3.0448428      2.8630457
 Standard basis: 6-31++G(d,p) (6D, 7F)
 There are   143 symmetry adapted basis functions of A   symmetry.
 Integral buffers will be    131072 words long.
 Raffenetti 2 integral format.
 Two-electron integral symmetry is turned on.
   143 basis functions,   224 primitive gaussians,   143 cartesian basis functions
    21 alpha electrons       21 beta electrons
       nuclear repulsion energy       186.7268924010 Hartrees.
 NAtoms=   13 NActive=   13 NUniq=   13 SFac= 1.00D+00 NAtFMM=   50 NAOKFM=F Big=F
 ------------------------------------------------------------------------------
 Polarizable Continuum Model (PCM)
 =================================
 Model                : PCM.
 Atomic radii         : SMD-Coulomb.
 Polarization charges : Total charges.
 Charge compensation  : None.
 Solution method      : Matrix inversion.
 Cavity type          : VdW (van der Waals Surface) (Alpha=1.000).
 Cavity algorithm     : GePol (No added spheres)
                        Default sphere list used, NSphG=   13.
[...]
    A2        1.90399  -0.00002   0.00000  -0.00021  -0.00021   1.90378
    A3        2.01939   0.00002   0.00000   0.00006   0.00006   2.01945
    A4        1.94686   0.00001   0.00000  -0.00012  -0.00012   1.94674
    A5        1.99935  -0.00002   0.00000  -0.00001  -0.00001   1.99935
    A6        1.91402   0.00000   0.00000   0.00004   0.00004   1.91406
    A7        2.15720   0.00001   0.00000   0.00005   0.00005   2.15725
    A8        2.06454   0.00000   0.00000   0.00001   0.00001   2.06454
    A9        2.05621   0.00000   0.00000  -0.00007  -0.00007   2.05613
   A10        1.84480   0.00004   0.00000  -0.00032  -0.00032   1.84448
   A11        1.92748   0.00001   0.00000   0.00008   0.00008   1.92756
   A12        1.91633   0.00000   0.00000  -0.00002  -0.00002   1.91631
   A13        1.93431   0.00000   0.00000   0.00001   0.00001   1.93432
   A14        1.89020   0.00000   0.00000  -0.00003  -0.00003   1.89017
   A15        1.89902   0.00000   0.00000   0.00003   0.00003   1.89905
   A16        1.89561   0.00000   0.00000  -0.00007  -0.00007   1.89555
   A17        1.84664   0.00003   0.00000   0.00026   0.00026   1.84690
   A18        2.65880   0.00005   0.00000   0.00011   0.00011   2.65891
    D1       -2.04269   0.00002   0.00000   0.00041   0.00041  -2.04228
    D2        1.21132   0.00002   0.00000   0.00060   0.00060   1.21192
    D3        2.23135   0.00002   0.00000   0.00050   0.00050   2.23185
    D4       -0.79782   0.00002   0.00000   0.00069   0.00069  -0.79713
    D5        0.06401   0.00001   0.00000   0.00057   0.00057   0.06457
    D6       -2.96517   0.00001   0.00000   0.00076   0.00076  -2.96441
    D7        0.57324   0.00004   0.00000   0.00013   0.00013   0.57336
    D8        2.54689   0.00002   0.00000  -0.00003  -0.00003   2.54686
    D9       -1.54901   0.00002   0.00000  -0.00008  -0.00008  -1.54909
   D10        1.15788   0.00000   0.00000   0.00017   0.00017   1.15805
   D11       -3.04210   0.00000   0.00000   0.00017   0.00017  -3.04192
   D12       -0.94789   0.00000   0.00000   0.00008   0.00008  -0.94781
   D13        3.07454   0.00000   0.00000   0.00051   0.00051   3.07505
   D14       -1.12544   0.00000   0.00000   0.00051   0.00051  -1.12493
   D15        0.96877   0.00000   0.00000   0.00042   0.00042   0.96919
   D16       -1.00424   0.00000   0.00000   0.00037   0.00037  -1.00386
   D17        1.07896   0.00000   0.00000   0.00038   0.00038   1.07934
   D18       -3.11001   0.00000   0.00000   0.00029   0.00029  -3.10973
   D19       -0.39883  -0.00001   0.00000   0.00029   0.00029  -0.39855
   D20       -1.70156  -0.00002   0.00000  -0.00124  -0.00124  -1.70280
         Item               Value     Threshold  Converged?
 Maximum Force            0.000054     0.000450     YES
 RMS     Force            0.000017     0.000300     YES
 Maximum Displacement     0.001325     0.001800     YES
 RMS     Displacement     0.000402     0.001200     YES
 Predicted change in Energy=-4.150473D-08
 Optimization completed.
    -- Stationary point found.
                           ----------------------------
                           !   Optimized Parameters   !
                           ! (Angstroms and Degrees)  !
 --------------------------                            --------------------------
 ! Name  Definition              Value          Derivative Info.                !
 --------------------------------------------------------------------------------
 ! R1    R(1,2)                  1.4722         -DE/DX =    0.0                 !
 ! R2    R(1,3)                  1.4175         -DE/DX =    0.0                 !
 ! R3    R(1,4)                  1.104          -DE/DX =    0.0                 !
 ! R4    R(1,7)                  1.5226         -DE/DX =    0.0                 !
 ! R5    R(2,5)                  1.0845         -DE/DX =    0.0                 !
 ! R6    R(2,6)                  1.085          -DE/DX =    0.0                 !
 ! R7    R(3,13)                 1.5918         -DE/DX =    0.0                 !
 ! R8    R(7,8)                  1.0965         -DE/DX =    0.0                 !
 ! R9    R(7,9)                  1.0946         -DE/DX =    0.0                 !
 ! R10   R(7,10)                 1.0952         -DE/DX =    0.0                 !
 ! R11   R(11,12)                0.9702         -DE/DX =    0.0                 !
 ! R12   R(11,13)                1.0136         -DE/DX =    0.0                 !
 ! A1    A(2,1,3)               95.6021         -DE/DX =    0.0                 !
 ! A2    A(2,1,4)              109.0904         -DE/DX =    0.0                 !
 ! A3    A(2,1,7)              115.7024         -DE/DX =    0.0                 !
 ! A4    A(3,1,4)              111.5466         -DE/DX =    0.0                 !
 ! A5    A(3,1,7)              114.5545         -DE/DX =    0.0                 !
 ! A6    A(4,1,7)              109.6652         -DE/DX =    0.0                 !
 ! A7    A(1,2,5)              123.5985         -DE/DX =    0.0                 !
 ! A8    A(1,2,6)              118.2892         -DE/DX =    0.0                 !
 ! A9    A(5,2,6)              117.8119         -DE/DX =    0.0                 !
 ! A10   A(1,3,13)             105.6991         -DE/DX =    0.0                 !
 ! A11   A(1,7,8)              110.4366         -DE/DX =    0.0                 !
 ! A12   A(1,7,9)              109.7978         -DE/DX =    0.0                 !
 ! A13   A(1,7,10)             110.8278         -DE/DX =    0.0                 !
 ! A14   A(8,7,9)              108.3005         -DE/DX =    0.0                 !
 ! A15   A(8,7,10)             108.8058         -DE/DX =    0.0                 !
 ! A16   A(9,7,10)             108.6105         -DE/DX =    0.0                 !
 ! A17   A(12,11,13)           105.8044         -DE/DX =    0.0                 !
 ! A18   A(3,13,11)            152.338          -DE/DX =    0.0001              !
 ! D1    D(3,1,2,5)           -117.0375         -DE/DX =    0.0                 !
 ! D2    D(3,1,2,6)             69.4037         -DE/DX =    0.0                 !
 ! D3    D(4,1,2,5)            127.8471         -DE/DX =    0.0                 !
 ! D4    D(4,1,2,6)            -45.7118         -DE/DX =    0.0                 !
 ! D5    D(7,1,2,5)              3.6673         -DE/DX =    0.0                 !
 ! D6    D(7,1,2,6)           -169.8916         -DE/DX =    0.0                 !
 ! D7    D(2,1,3,13)            32.844          -DE/DX =    0.0                 !
 ! D8    D(4,1,3,13)           145.926          -DE/DX =    0.0                 !
 ! D9    D(7,1,3,13)           -88.7515         -DE/DX =    0.0                 !
 ! D10   D(2,1,7,8)             66.3417         -DE/DX =    0.0                 !
 ! D11   D(2,1,7,9)           -174.2995         -DE/DX =    0.0                 !
 ! D12   D(2,1,7,10)           -54.3101         -DE/DX =    0.0                 !
 ! D13   D(3,1,7,8)            176.1585         -DE/DX =    0.0                 !
 ! D14   D(3,1,7,9)            -64.4827         -DE/DX =    0.0                 !
 ! D15   D(3,1,7,10)            55.5066         -DE/DX =    0.0                 !
 ! D16   D(4,1,7,8)            -57.5387         -DE/DX =    0.0                 !
 ! D17   D(4,1,7,9)             61.8201         -DE/DX =    0.0                 !
 ! D18   D(4,1,7,10)          -178.1906         -DE/DX =    0.0                 !
 ! D19   D(1,3,13,11)          -22.8514         -DE/DX =    0.0                 !
 ! D20   D(12,11,13,3)         -97.492          -DE/DX =    0.0                 !
 --------------------------------------------------------------------------------
 GradGradGradGradGradGradGradGradGradGradGradGradGradGradGradGradGradGrad

 1\1\GINC-C55N04\Freq\RB3LYP\6-31++G(d,p)\C3H8O2\ROOT\26-Apr-2018\0\\#N
  Geom=AllCheck Guess=TCheck SCRF=Check GenChk RB3LYP/6-31++G(d,p) Freq
 \\OH-BACK-TERM\\0,1\C,-0.0026102311,-0.0183786259,-0.020754686\C,-0.00
 84862933,-0.0360355967,1.4513546291\O,1.4078446022,-0.0657516347,-0.15
 40820217\H,-0.4109088775,0.9453116756,-0.3719137289\H,-0.4491865343,-0
 .8330186358,2.0402190461\H,0.3564131723,0.8398982213,1.9775881872\C,-0
 .7410341692,-1.16493848,-0.6978578337\H,-1.8168215887,-1.0998174884,-0
 .4958828104\H,-0.5909806558,-1.1142947596,-1.7809771367\H,-0.372267805
 9,-2.1316565373,-0.3387331712\O,1.8276748447,-1.3173488447,2.008470403
 1\H,2.3168496027,-0.7205693522,2.5966247158\H,1.928045614,-0.930422163
 3,1.0769760567\\Version=EM64L-G09RevB.01\State=1-A\HF=-269.5114089\RMS
 D=1.409e-09\RMSF=1.527e-05\ZeroPoint=0.1073672\Thermal=0.1137779\Dipol
 e=-1.6406276,0.7584615,1.5378011\DipoleDeriv=0.7752396,-0.0904811,0.60
 42565,0.1628426,0.4957257,0.0767018,0.0209414,0.0995494,0.305495,0.798
 1713,-0.2509192,0.0298626,-0.2444838,0.5186156,-0.5461904,0.0668168,-0
 .3658487,0.9707752,-1.5098463,-0.0066008,0.1533538,0.0091285,-0.880714
 1,0.0617029,0.1064293,0.2380746,-1.6081693,-0.0098473,0.0836699,-0.093
 5231,0.1009161,-0.1636851,0.0511829,-0.1285471,0.0437135,0.0907196,0.1
 124211,0.0366379,-0.1254198,0.0039441,0.047053,0.0970913,0.0146887,-0.
 0013013,0.1155739,0.0038092,0.0328903,-0.0398416,-0.0000527,0.0700343,
 -0.0035993,-0.0082821,-0.0267409,0.0913769,0.0155444,-0.1261451,-0.124
 6946,-0.1132989,-0.0145679,-0.0642934,-0.1009386,-0.0840398,0.1054473,
 -0.1820217,-0.0130723,-0.0002137,0.0190964,0.0632669,-0.073353,0.05753
 64,-0.0251997,0.0608292,0.0856477,-0.0125664,0.0601139,-0.0511977,0.07
 10756,0.035785,0.0061915,-0.007158,-0.1673232,0.0502015,0.096949,-0.05
 108,0.0380975,-0.126835,0.0354305,-0.0485813,0.090689,0.0496283,-1.004
 485,0.4466079,-0.5769779,0.3359982,-0.8602682,0.5118636,-0.3388238,0.3
 354617,-1.2149813,0.4085186,-0.0613645,-0.0090309,-0.0165118,0.2769171
 ,-0.0001197,0.0283765,-0.0301802,0.4465261,0.4566469,-0.1356057,0.1731
 949,-0.2444786,0.5033822,-0.1822023,0.3241923,-0.2670198,0.7541023\Pol
 ar=81.6562634,-6.8064306,66.9508166,0.2661492,-5.9335545,88.4774624\PG
 =C01 [X(C3H8O2)]\NImag=1\\0.42725569,-0.00351516,0.53526669,0.05453473
 ,-0.00078703,0.51136145,-0.02104699,-0.02029166,-0.01828880,0.24587684
 ,-0.00453777,-0.08626728,0.00765323,0.20541859,0.56714539,-0.05712409,
 0.00523322,-0.25925762,-0.01007435,0.01839160,0.54927099,-0.27813424,0
 .02167862,-0.00055386,-0.04252441,0.01033202,0.02214618,0.36449339,0.0
 0858477,-0.06434409,-0.00780070,0.00956716,-0.00558077,-0.00060311,-0.
 01753874,0.06576234,0.05895863,-0.02229637,-0.04665129,0.01316383,-0.0
 0960959,0.00883031,-0.02020844,-0.00838387,0.05698759,-0.05420552,0.06
 338141,-0.02200085,-0.00014921,-0.00239444,0.00028112,-0.03595645,0.02
 990970,-0.01406368,0.08663771,0.06213679,-0.23119398,0.06586506,0.0020
 6093,-0.00260969,0.00245005,0.00634947,0.00525198,0.00232950,-0.076718
 16,0.25240942,-0.03276467,0.07567433,-0.08382598,-0.00517841,0.0306495
 0,-0.01720462,-0.00214963,-0.00918052,0.01416296,0.03237788,-0.0760863
 2,0.08312578,0.01821101,-0.00523223,0.01224093,-0.09472583,-0.09875009
 ,0.06900858,0.01021942,-0.00289847,-0.01192855,-0.00227299,0.00227896,
 0.00194056,0.08107600,-0.00527088,0.00701343,-0.00890985,-0.10019750,-
 0.22110476,0.11635155,-0.00407491,0.00212023,0.00580658,0.00075222,-0.
 00000540,-0.00150711,0.10307665,0.22182492,0.00210909,0.02258406,-0.00
 396455,0.07089726,0.11895857,-0.14956344,0.00287225,-0.00119773,0.0003
 2431,0.00085318,-0.00003233,-0.00459562,-0.06879069,-0.12944354,0.1433
 9039,-0.00474805,-0.00583675,0.00010169,-0.07520936,-0.09393360,-0.051
 76387,0.00453121,0.00384187,0.00625683,0.00099802,-0.00070126,0.000520
 80,0.00675939,-0.00872451,-0.00764455,0.06873852,0.00179754,0.00795957
 ,0.00363411,-0.08947467,-0.25656718,-0.11686910,-0.00173770,-0.0008706
 6,-0.00073375,-0.00000835,0.00098704,-0.00090165,-0.00771473,-0.006990
 82,-0.01025924,0.09677381,0.25693105,-0.01106678,-0.02359589,-0.008545
 40,-0.04448692,-0.11632184,-0.12629442,-0.00220187,0.00148502,0.002576
 41,-0.00017403,0.00018715,0.00137692,0.00396688,0.01383355,0.01079453,
 0.05245226,0.12430707,0.12508875,-0.09060612,-0.03809234,-0.02143934,0
 .00196766,0.00318639,-0.00060747,-0.03394373,-0.02604416,-0.01647643,0
 .00498222,0.00646042,0.00370540,-0.00125165,0.00074954,0.00084770,0.00
 222715,-0.00098005,0.00208217,0.54731357,-0.03877846,-0.15709750,-0.04
 303668,-0.00205016,0.00023776,-0.00261551,-0.00318777,0.00728159,0.002
 61373,-0.01372084,-0.02334829,-0.01496168,0.00040910,0.00154986,0.0011
 7880,0.00145453,0.00022875,0.00161641,-0.04039302,0.51838022,-0.019497
 26,-0.04006415,-0.10383969,-0.01743796,-0.02987717,-0.02241620,0.00021
 569,0.00719111,0.00837243,0.00293329,0.00745508,0.00484958,-0.00108284
 ,0.00043464,0.00190653,0.00018503,0.00007828,-0.00500719,-0.02174105,-
 0.03467374,0.55833310,-0.01215699,0.00521096,0.00439225,-0.00013094,-0
 .00036447,0.00107300,-0.00292208,-0.00417105,-0.00289083,0.00082301,-0
 .00023325,0.00009888,0.00004654,0.00005653,-0.00026318,-0.00019365,0.0
 0012491,-0.00003503,-0.30024026,0.01558002,0.04788408,0.32592399,-0.02
 336418,0.00350391,0.00684960,0.00076488,0.00043392,0.00123196,-0.00393
 820,-0.00354662,-0.00363373,0.00086142,0.00089857,0.00077670,-0.000001
 24,0.00004163,-0.00007464,-0.00001850,-0.00000697,0.00017849,0.0179088
 3,-0.04869770,-0.00473034,-0.01670744,0.04789430,-0.01473078,0.0024433
 9,0.00171089,0.00060367,0.00077791,0.00146780,-0.00206611,-0.00321342,
 -0.00085466,0.00034751,0.00042243,0.00041837,-0.00007947,0.00007932,-0
 .00010715,-0.00010447,0.00008623,0.00023229,0.04889044,-0.00407444,-0.
 05538147,-0.05237213,0.00544971,0.05501334,0.00085675,0.00107126,-0.01
 641142,-0.00126953,-0.00296650,-0.00173804,0.00177069,0.00093698,0.000
 36018,0.00016423,0.00048137,0.00057848,0.00000435,-0.00006305,0.000047
 20,-0.00012350,0.00005031,-0.00085621,-0.05075262,-0.00130494,0.039154
 47,-0.00262670,-0.00167202,0.03067948,0.05075805,0.00463914,0.00118348
 ,-0.02670796,-0.00242142,-0.00398295,-0.00230950,0.00094129,0.00144605
 ,0.00229415,0.00053443,0.00116187,0.00044320,0.00001745,0.00004752,-0.
 00004064,-0.00017141,0.00017808,-0.00139166,-0.00261831,-0.04743497,0.
 01666701,0.00026469,-0.00079181,-0.00195701,0.00375445,0.04845531,0.00
 342633,0.00177301,-0.01400126,-0.00056179,-0.00340593,-0.00043408,-0.0
 0058769,0.00045595,0.00136612,-0.00002608,-0.00009274,0.00084011,0.000
 16704,-0.00007882,0.00023232,-0.00072034,0.00052690,-0.00068155,0.0368
 8474,0.01445665,-0.30923565,0.00045224,0.00036854,-0.00389589,-0.04047
 540,-0.01408547,0.33426597,0.00336410,-0.01500218,0.00529697,0.0003374
 4,0.00029433,0.00064674,0.00223488,0.00032635,0.00091079,-0.00048890,-
 0.00253992,-0.00150897,0.00020718,0.00020683,-0.00005636,0.00001922,0.
 00000958,0.00008018,-0.07869013,0.08171109,-0.03081270,-0.00834095,0.0
 2658208,-0.01098652,0.00114843,-0.00500610,0.00144137,0.08027765,0.009
 64980,-0.02279042,0.00755696,0.00065269,0.00031859,0.00147994,-0.00015
 250,0.00270692,0.00074014,-0.00257221,-0.00309628,-0.00306606,0.000330
 29,-0.00008365,-0.00068460,-0.00014732,0.00027554,-0.00012256,0.079160
 57,-0.25104158,0.07811512,-0.00002360,-0.00013135,-0.00025027,-0.00023
 924,-0.00010542,0.00008967,-0.08663468,0.27389222,0.00619092,-0.015421
 21,0.00470549,0.00018033,-0.00085899,0.00130712,0.00128605,0.00161542,
 -0.00013383,-0.00180605,-0.00246795,-0.00053373,0.00004985,0.00046782,
 -0.00000976,0.00015934,0.00009382,0.00009702,-0.03146106,0.07969907,-0
 .07763989,0.00172455,-0.00620795,0.00144485,-0.01137266,0.02701520,-0.
 00854418,0.03521003,-0.08395526,0.07947411,0.01786124,-0.00606265,0.00
 517528,0.00527104,-0.02185465,0.02864070,0.01472151,0.00608753,-0.0263
 7416,-0.00060858,0.00060967,0.00169909,-0.01706137,0.01279368,-0.00067
 069,-0.00449284,0.00091170,0.00027478,-0.00118839,0.00044745,0.0005652
 7,-0.00049813,-0.00065062,-0.00035179,0.00002627,0.00002822,-0.0001181
 4,-0.00013220,-0.00012611,-0.00010606,0.15268588,-0.01085681,0.0014214
 0,0.00152799,-0.01070909,0.00165495,-0.01457437,0.00668711,-0.00551183
 ,0.03141017,0.00156482,-0.00043564,-0.00070138,0.00459094,-0.00236734,
 -0.00071923,0.00730579,-0.00157463,-0.00012340,0.00113280,-0.00070780,
 -0.00071087,0.00051955,0.00064853,0.00022940,-0.00005659,-0.00005944,0
 .00007395,-0.00008196,0.00023860,-0.00008852,0.19635728,0.30094324,0.0
 0757621,0.00596309,-0.00718047,0.00691532,-0.00774954,-0.00198371,-0.0
 2555813,0.02986634,-0.04222593,-0.00318879,0.00010457,-0.00033951,-0.0
 0067853,0.00037063,0.00093141,0.00105531,-0.00031473,-0.00014033,-0.00
 082263,0.00034796,0.00036406,-0.00041064,-0.00038471,-0.00009950,0.000
 05069,-0.00009217,-0.00009181,-0.00009213,-0.00024250,-0.00010960,0.11
 899382,0.05307066,0.51666765,0.00023467,-0.00051922,0.00039164,-0.0039
 2809,-0.00226934,-0.00220927,0.00067331,0.00001743,0.00106366,0.000099
 77,0.00003535,0.00007537,-0.00082616,0.00065747,-0.00017171,0.00109368
 ,0.00015904,-0.00007031,-0.00001154,-0.00002648,-0.00006758,0.00005656
 ,0.00007565,0.00001748,0.00000443,-0.00001636,0.00001150,0.00004903,0.
 00006719,0.00001035,-0.13659454,-0.15969631,-0.15590472,0.13726953,-0.
 00129588,-0.00000918,-0.00008182,-0.00055567,0.00363668,-0.00080073,0.
 00005792,-0.00223306,0.00356312,0.00008704,0.00002454,-0.00001659,0.00
 116166,-0.00063887,-0.00009188,0.00017311,-0.00010280,0.00023468,0.000
 00856,-0.00009164,-0.00002655,0.00003285,0.00002499,0.00001582,-0.0000
 0176,0.00004840,0.00002388,-0.00001667,0.00003702,-0.00000905,-0.16425
 925,-0.21283969,-0.19212093,0.15824100,0.20484728,-0.00058244,0.000046
 56,-0.00012433,-0.00184168,0.00224352,-0.00243547,-0.00052679,0.002615
 16,0.00030651,-0.00004637,-0.00000208,0.00008922,0.00085774,-0.0004747
 3,0.00006431,0.00026185,0.00021437,0.00016154,0.00007051,-0.00018480,-
 0.00003171,0.00004208,0.00006065,0.00002822,0.00000763,0.00002452,0.00
 002910,-0.00001885,0.00003200,-0.00004450,-0.13097739,-0.15544861,-0.2
 0486671,0.15334935,0.17926704,0.22409930,-0.00688556,0.00320994,-0.003
 43923,-0.01446863,0.00783955,0.00172077,-0.00516350,-0.00861938,0.0112
 2819,-0.00002331,-0.00022036,0.00060522,-0.00038587,0.00003792,-0.0000
 2949,0.00040021,0.00008861,0.00003488,0.00019382,-0.00014053,-0.000298
 44,0.00025960,0.00015934,0.00015271,0.00003915,0.00005393,0.00010622,0
 .00001424,0.00003510,-0.00006559,-0.02998989,-0.03675752,0.05206423,0.
 00187935,0.00636709,-0.02059563,0.05413040,0.00081109,0.00535397,-0.00
 576289,0.00723592,0.00268534,-0.00736601,-0.01541662,-0.00248208,-0.00
 410008,-0.00167704,-0.00004416,-0.00112242,0.00273172,-0.00140675,-0.0
 0017760,-0.00001576,-0.00044698,-0.00028702,-0.00047923,0.00074130,0.0
 0014159,-0.00028970,-0.00027140,-0.00000907,0.00000973,-0.00014611,-0.
 00010558,0.00015126,-0.00022017,0.00011758,-0.02428226,-0.08141035,0.1
 1118130,0.00327460,0.00729631,-0.02839361,0.02794630,0.07035109,0.0029
 7011,-0.01155301,0.00961276,0.00610951,-0.01085126,0.01871335,0.027332
 37,-0.01284965,-0.00306094,0.00451286,-0.00013244,0.00163652,-0.005671
 49,0.00306997,0.00059673,-0.00075988,0.00013770,0.00034143,0.00006703,
 -0.00036579,-0.00027391,0.00030473,0.00011572,0.00002292,-0.00002440,0
 .00014034,0.00015081,-0.00011056,0.00030740,-0.00001310,0.00324930,0.0
 8605420,-0.26092554,0.00350425,0.01004302,-0.01727549,-0.04148385,-0.0
 6411620,0.25047447\\0.00001524,0.00001966,-0.00000654,0.00000288,-0.00
 003487,0.00003300,0.00000574,0.00000863,0.00000739,0.00000069,0.000000
 99,0.00000609,-0.00003698,-0.00000187,-0.00000465,0.00002554,-0.000021
 14,0.00001267,0.00000671,0.00000201,-0.00001764,0.00000335,0.00001277,
 -0.00000567,0.00000540,0.00002411,-0.00000506,-0.00000172,0.00000746,-
 0.00001155,-0.00002788,-0.00002295,0.00000888,-0.00001067,-0.00000119,
 -0.00000348,0.00001169,0.00000640,-0.00001345\\\@


 IF THERE IS ONE WAY BETTER THAN ANOTHER IT IS THE WAY OF NATURE.

                          -- ARISTOTLE
 Job cpu time:  0 days  0 hours  8 minutes 46.7 seconds.
 File lengths (MBytes):  RWF=   2256 Int=      0 D2E=      0 Chk=     32 Scr=     32
 Normal termination of Gaussian 09 at Thu Apr 26 15:39:35 2018.
