 Entering Gaussian System, Link 0=g09
 Input=H2O-mid.gjf
 Output=H2O-mid.log
 Initial command:
 /share/home/zxchen/g09/l1.exe /scratch/zxchen/Gau-24878.inp -scrdir=/scratch/zxchen/
 Entering Link 1 = /share/home/zxchen/g09/l1.exe PID=     24879.
  
 Copyright (c) 1988,1990,1992,1993,1995,1998,2003,2009,2010,
            Gaussian, Inc.  All Rights Reserved.
  
 This is part of the Gaussian(R) 09 program.  It is based on
 the Gaussian(R) 03 system (copyright 2003, Gaussian, Inc.),
 the Gaussian(R) 98 system (copyright 1998, Gaussian, Inc.),
 the Gaussian(R) 94 system (copyright 1995, Gaussian, Inc.),
 the Gaussian 92(TM) system (copyright 1992, Gaussian, Inc.),
 the Gaussian 90(TM) system (copyright 1990, Gaussian, Inc.),
 the Gaussian 88(TM) system (copyright 1988, Gaussian, Inc.),
 the Gaussian 86(TM) system (copyright 1986, Carnegie Mellon
 University), and the Gaussian 82(TM) system (copyright 1983,
 Carnegie Mellon University). Gaussian is a federally registered
 trademark of Gaussian, Inc.
  
 This software contains proprietary and confidential information,
 including trade secrets, belonging to Gaussian, Inc.
  
 This software is provided under written license and may be
 used, copied, transmitted, or stored only in accord with that
 written license.
  
 The following legend is applicable only to US Government
 contracts under FAR:
  
                    RESTRICTED RIGHTS LEGEND
  
 Use, reproduction and disclosure by the US Government is
 subject to restrictions as set forth in subparagraphs (a)
 and (c) of the Commercial Computer Software - Restricted
 Rights clause in FAR 52.227-19.
  
 Gaussian, Inc.
 340 Quinnipiac St., Bldg. 40, Wallingford CT 06492
  
  
 ---------------------------------------------------------------
 Warning -- This program may not be used in any manner that
 competes with the business of Gaussian, Inc. or will provide
 assistance to any competitor of Gaussian, Inc.  The licensee
 of this program is prohibited from giving any competitor of
 Gaussian, Inc. access to this program.  By using this program,
 the user acknowledges that Gaussian, Inc. is engaged in the
 business of creating and licensing software in the field of
 computational chemistry and represents and warrants to the
 licensee that it is not a competitor of Gaussian, Inc. and that
 it will not use this program in any manner prohibited above.
 ---------------------------------------------------------------
  

 Cite this work as:
 Gaussian 09, Revision B.01,
 M. J. Frisch, G. W. Trucks, H. B. Schlegel, G. E. Scuseria, 
 M. A. Robb, J. R. Cheeseman, G. Scalmani, V. Barone, B. Mennucci, 
 G. A. Petersson, H. Nakatsuji, M. Caricato, X. Li, H. P. Hratchian, 
 A. F. Izmaylov, J. Bloino, G. Zheng, J. L. Sonnenberg, M. Hada, 
 M. Ehara, K. Toyota, R. Fukuda, J. Hasegawa, M. Ishida, T. Nakajima, 
 Y. Honda, O. Kitao, H. Nakai, T. Vreven, J. A. Montgomery, Jr., 
 J. E. Peralta, F. Ogliaro, M. Bearpark, J. J. Heyd, E. Brothers, 
 K. N. Kudin, V. N. Staroverov, T. Keith, R. Kobayashi, J. Normand, 
 K. Raghavachari, A. Rendell, J. C. Burant, S. S. Iyengar, J. Tomasi, 
 M. Cossi, N. Rega, J. M. Millam, M. Klene, J. E. Knox, J. B. Cross, 
 V. Bakken, C. Adamo, J. Jaramillo, R. Gomperts, R. E. Stratmann, 
 O. Yazyev, A. J. Austin, R. Cammi, C. Pomelli, J. W. Ochterski, 
 R. L. Martin, K. Morokuma, V. G. Zakrzewski, G. A. Voth, 
 P. Salvador, J. J. Dannenberg, S. Dapprich, A. D. Daniels, 
 O. Farkas, J. B. Foresman, J. V. Ortiz, J. Cioslowski, 
 and D. J. Fox, Gaussian, Inc., Wallingford CT, 2010.
 
 ******************************************
 Gaussian 09:  EM64L-G09RevB.01 12-Aug-2010
                26-Apr-2018 
 ******************************************
 %chk=H2O-mid.chk
 %nprocshared=24
 Will use up to   24 processors via shared memory.
 ----------------------------------------------------------------------
 # scrf=(smd,solvent=water) opt=(ts,noeigen,calcfc) freq b3lyp/6-31++g(
 d,p)
 ----------------------------------------------------------------------
 1/5=1,10=4,11=1,14=-1,18=20,26=3,38=1/1,3;
 2/9=110,12=2,17=6,18=5,40=1/2;
 3/5=1,6=6,7=1111,11=2,16=1,25=1,30=1,70=32201,71=2,72=1,74=-5/1,2,3;
 4//1;
 5/5=2,38=5,53=1/2;
 8/6=4,10=90,11=11/1;
 11/6=1,8=1,9=11,15=111,16=1/1,2,10;
 10/6=1,7=6,13=1/2;
 6/7=2,8=2,9=2,10=2,28=1/1;
 7/10=1,18=20,25=1/1,2,3,16;
 1/5=1,10=4,11=1,14=-1,18=20/3(2);
 2/9=110/2;
 99//99;
 2/9=110/2;
 3/5=1,6=6,7=1111,11=2,16=1,25=1,30=1,70=32205,71=1,72=1,74=-5/1,2,3;
 4/5=5,16=3/1;
 5/5=2,38=5,53=1/2;
 7//1,2,3,16;
 1/5=1,11=1,14=-1,18=20/3(-5);
 2/9=110/2;
 6/7=2,8=2,9=2,10=2,19=2,28=1/1;
 99/9=1/99;
 -----------
 OH-BACK-MID
 -----------
 Symbolic Z-matrix:
 Charge =  0 Multiplicity = 1
 C
 C                    1    B1
 O                    2    B2       1    A1
 H                    1    B3       2    A2       3    D1       0
 H                    2    B4       1    A3       3    D2       0
 H                    2    B5       1    A4       3    D3       0
 C                    1    B6       2    A5       3    D4       0
 H                    7    B7       1    A6       2    D5       0
 H                    7    B8       1    A7       2    D6       0
 H                    7    B9       1    A8       2    D7       0
 O                    1    B10      7    A9       2    D8       0
 H                    11   B11      1    A10      7    D9       0
 H                    11   B12      1    A11      7    D10      0
       Variables:
  B1                    1.48493                  
  B2                    1.38913                  
  B3                    1.08665                  
  B4                    1.10765                  
  B5                    1.10395                  
  B6                    1.47551                  
  B7                    1.10315                  
  B8                    1.09443                  
  B9                    1.09027                  
  B10                   2.28585                  
  B11                   0.96771                  
  B12                   1.04792                  
  A1                   98.08895                  
  A2                  121.83833                  
  A3                  110.4151                   
  A4                  112.29714                  
  A5                  121.26136                  
  A6                  106.82741                  
  A7                  111.03875                  
  A8                  112.06647                  
  A9                   98.87103                  
  A10                 120.41597                  
  A11                  70.43868                  
  D1                 -118.07986                  
  D2                 -118.73865                  
  D3                  121.00553                  
  D4                   68.63585                  
  D5                  114.52949                  
  D6                 -129.84177                  
  D7                   -6.41944                  
  D8                  104.80249                  
  D9                  160.84903                  
  D10                 -99.2176                   
 

 GradGradGradGradGradGradGradGradGradGradGradGradGradGradGradGradGradGrad
 Berny optimization.
 Initialization pass.
                           ----------------------------
                           !    Initial Parameters    !
                           ! (Angstroms and Degrees)  !
 --------------------------                            --------------------------
 ! Name  Definition              Value          Derivative Info.                !
 --------------------------------------------------------------------------------
 ! R1    R(1,2)                  1.4849         calculate D2E/DX2 analytically  !
 ! R2    R(1,4)                  1.0867         calculate D2E/DX2 analytically  !
 ! R3    R(1,7)                  1.4755         calculate D2E/DX2 analytically  !
 ! R4    R(2,3)                  1.3891         calculate D2E/DX2 analytically  !
 ! R5    R(2,5)                  1.1076         calculate D2E/DX2 analytically  !
 ! R6    R(2,6)                  1.1039         calculate D2E/DX2 analytically  !
 ! R7    R(3,13)                 1.4688         calculate D2E/DX2 analytically  !
 ! R8    R(7,8)                  1.1032         calculate D2E/DX2 analytically  !
 ! R9    R(7,9)                  1.0944         calculate D2E/DX2 analytically  !
 ! R10   R(7,10)                 1.0903         calculate D2E/DX2 analytically  !
 ! R11   R(11,12)                0.9677         calculate D2E/DX2 analytically  !
 ! R12   R(11,13)                1.0479         calculate D2E/DX2 analytically  !
 ! A1    A(2,1,4)              121.8383         calculate D2E/DX2 analytically  !
 ! A2    A(2,1,7)              121.2614         calculate D2E/DX2 analytically  !
 ! A3    A(4,1,7)              116.5806         calculate D2E/DX2 analytically  !
 ! A4    A(1,2,3)               98.089          calculate D2E/DX2 analytically  !
 ! A5    A(1,2,5)              110.4151         calculate D2E/DX2 analytically  !
 ! A6    A(1,2,6)              112.2971         calculate D2E/DX2 analytically  !
 ! A7    A(3,2,5)              113.3939         calculate D2E/DX2 analytically  !
 ! A8    A(3,2,6)              114.7384         calculate D2E/DX2 analytically  !
 ! A9    A(5,2,6)              107.7317         calculate D2E/DX2 analytically  !
 ! A10   A(2,3,13)             103.7262         calculate D2E/DX2 analytically  !
 ! A11   A(1,7,8)              106.8274         calculate D2E/DX2 analytically  !
 ! A12   A(1,7,9)              111.0387         calculate D2E/DX2 analytically  !
 ! A13   A(1,7,10)             112.0665         calculate D2E/DX2 analytically  !
 ! A14   A(8,7,9)              106.409          calculate D2E/DX2 analytically  !
 ! A15   A(8,7,10)             110.3307         calculate D2E/DX2 analytically  !
 ! A16   A(9,7,10)             109.972          calculate D2E/DX2 analytically  !
 ! A17   A(12,11,13)           108.0402         calculate D2E/DX2 analytically  !
 ! A18   A(3,13,11)            152.7273         calculate D2E/DX2 analytically  !
 ! D1    D(4,1,2,3)           -118.0799         calculate D2E/DX2 analytically  !
 ! D2    D(4,1,2,5)            123.1815         calculate D2E/DX2 analytically  !
 ! D3    D(4,1,2,6)              2.9257         calculate D2E/DX2 analytically  !
 ! D4    D(7,1,2,3)             68.6358         calculate D2E/DX2 analytically  !
 ! D5    D(7,1,2,5)            -50.1028         calculate D2E/DX2 analytically  !
 ! D6    D(7,1,2,6)           -170.3586         calculate D2E/DX2 analytically  !
 ! D7    D(2,1,7,8)            114.5295         calculate D2E/DX2 analytically  !
 ! D8    D(2,1,7,9)           -129.8418         calculate D2E/DX2 analytically  !
 ! D9    D(2,1,7,10)            -6.4194         calculate D2E/DX2 analytically  !
 ! D10   D(4,1,7,8)            -59.0924         calculate D2E/DX2 analytically  !
 ! D11   D(4,1,7,9)             56.5363         calculate D2E/DX2 analytically  !
 ! D12   D(4,1,7,10)           179.9587         calculate D2E/DX2 analytically  !
 ! D13   D(1,2,3,13)            38.8508         calculate D2E/DX2 analytically  !
 ! D14   D(5,2,3,13)           155.2975         calculate D2E/DX2 analytically  !
 ! D15   D(6,2,3,13)           -80.321          calculate D2E/DX2 analytically  !
 ! D16   D(2,3,13,11)          -27.257          calculate D2E/DX2 analytically  !
 ! D17   D(12,11,13,3)         117.1157         calculate D2E/DX2 analytically  !
 --------------------------------------------------------------------------------
 Trust Radius=3.00D-01 FncErr=1.00D-07 GrdErr=1.00D-06
 Number of steps in this run=     57 maximum allowed number of steps=    100.
 Search for a saddle point of order  1.
 GradGradGradGradGradGradGradGradGradGradGradGradGradGradGradGradGradGrad

                          Input orientation:                          
 ---------------------------------------------------------------------
 Center     Atomic      Atomic             Coordinates (Angstroms)
 Number     Number       Type             X           Y           Z
 ---------------------------------------------------------------------
      1          6           0        0.000000    0.000000    0.000000
      2          6           0        0.000000    0.000000    1.484928
      3          8           0        1.375305    0.000000    1.680392
      4          1           0       -0.434531    0.814493   -0.573236
      5          1           0       -0.499123   -0.910209    1.871296
      6          1           0       -0.526145    0.875461    1.903775
      7          6           0        0.459478   -1.174613   -0.765708
      8          1           0       -0.418557   -1.566927   -1.306160
      9          1           0        1.188521   -0.885397   -1.529012
     10          1           0        0.882051   -1.944776   -0.119975
     11          8           0        1.814650    1.354935   -0.310313
     12          1           0        1.742264    2.310016   -0.172320
     13          1           0        1.876722    0.895068    0.629268
 ---------------------------------------------------------------------
                    Distance matrix (angstroms):
                    1          2          3          4          5
     1  C    0.000000
     2  C    1.484928   0.000000
     3  O    2.171447   1.389126   0.000000
     4  H    1.086654   2.255716   3.002956   0.000000
     5  H    2.139943   1.107648   2.092464   2.992408   0.000000
     6  H    2.160468   1.103945   2.105195   2.479455   1.786170
     7  C    1.475515   2.579960   2.863889   2.189256   2.818265
     8  H    2.082427   3.228099   3.820038   2.491705   3.245613
     9  H    2.129410   3.358622   3.334530   2.537210   3.796163
    10  H    2.138822   2.671307   2.695695   3.090695   2.634983
    11  O    2.285847   2.889929   2.447811   2.328093   3.904336
    12  H    2.898508   3.334385   2.983852   2.671284   4.423802
    13  H    2.172374   2.248418   1.468819   2.606606   3.232073
                    6          7          8          9         10
     6  H    0.000000
     7  C    3.507193   0.000000
     8  H    4.034913   1.103152   0.000000
     9  H    4.221935   1.094433   1.759786   0.000000
    10  H    3.745974   1.090270   1.800385   1.789299   0.000000
    11  O    3.257515   2.905595   3.810012   2.626090   3.434247
    12  H    3.393199   3.760357   4.580985   3.515382   4.341193
    13  H    2.720023   2.870212   3.882732   2.881293   3.100879
                   11         12         13
    11  O    0.000000
    12  H    0.967710   0.000000
    13  H    1.047923   1.631777   0.000000
 Stoichiometry    C3H8O2
 Framework group  C1[X(C3H8O2)]
 Deg. of freedom    33
 Full point group                 C1      NOp   1
 Largest Abelian subgroup         C1      NOp   1
 Largest concise Abelian subgroup C1      NOp   1
                         Standard orientation:                         
 ---------------------------------------------------------------------
 Center     Atomic      Atomic             Coordinates (Angstroms)
 Number     Number       Type             X           Y           Z
 ---------------------------------------------------------------------
      1          6           0        0.594144   -0.104570    0.609075
      2          6           0        0.100083    1.280241    0.401199
      3          8           0       -0.693626    1.039393   -0.713112
      4          1           0        0.379697   -0.659232    1.518568
      5          1           0        0.946049    1.965958    0.198671
      6          1           0       -0.443471    1.667451    1.280581
      7          6           0        1.521800   -0.738266   -0.347496
      8          1           0        2.472875   -0.898076    0.188098
      9          1           0        1.163875   -1.729008   -0.644318
     10          1           0        1.683879   -0.120685   -1.231245
     11          8           0       -1.321067   -1.208059    0.026519
     12          1           0       -2.073703   -1.237405    0.634088
     13          1           0       -1.307820   -0.264107   -0.428368
 ---------------------------------------------------------------------
 Rotational constants (GHZ):      4.9606321      4.6848022      3.0616483
 Standard basis: 6-31++G(d,p) (6D, 7F)
 There are   143 symmetry adapted basis functions of A   symmetry.
 Integral buffers will be    131072 words long.
 Raffenetti 2 integral format.
 Two-electron integral symmetry is turned on.
   143 basis functions,   224 primitive gaussians,   143 cartesian basis functions
    21 alpha electrons       21 beta electrons
       nuclear repulsion energy       189.7174813770 Hartrees.
 NAtoms=   13 NActive=   13 NUniq=   13 SFac= 1.00D+00 NAtFMM=   50 NAOKFM=F Big=F
 ------------------------------------------------------------------------------
 Polarizable Continuum Model (PCM)
 =================================
 Model                : PCM.
 Atomic radii         : SMD-Coulomb.
 Polarization charges : Total charges.
 Charge compensation  : None.
 Solution method      : Matrix inversion.
 Cavity type          : VdW (van der Waals Surface) (Alpha=1.000).
 Cavity algorithm     : GePol (No added spheres)
                        Default sphere list used, NSphG=   13.
                        Lebedev-Laikov grids with approx.  5.0 points / Ang**2.
                        Smoothing algorithm: Karplus/York (Gamma=1.0000).
                        Polarization charges: spherical gaussians, with
                                              point-specific exponents (IZeta= 3).
                        Self-potential: point-specific (ISelfS= 7).
                        Self-field    : sphere-specific E.n sum rule (ISelfD= 2).
 1st derivatives      : Analytical E(r).r(x)/FMM algorithm (CHGder, D1EAlg=3).
                        Cavity 1st derivative terms included.
 2nd derivatives      : Analytical E(r).r(xy)/FMM algorithm (CHGder, D2EAlg=3).
                        Cavity 2nd derivative terms included.
 Solvent              : Water, Eps=  78.355300 Eps(inf)=   1.777849
 ------------------------------------------------------------------------------
 Spheres list:
 ISph  on   Nord    Re0     Alpha      Xe            Ye            Ze
    1   C      1    1.850   1.000      0.594144     -0.104570      0.609075
    2   C      2    1.850   1.000      0.100083      1.280241      0.401199
    3   O      3    1.520   1.000     -0.693626      1.039393     -0.713112
    4   H      4    1.200   1.000      0.379697     -0.659232      1.518568
    5   H      5    1.200   1.000      0.946049      1.965958      0.198671
    6   H      6    1.200   1.000     -0.443471      1.667451      1.280581
    7   C      7    1.850   1.000      1.521800     -0.738266     -0.347496
    8   H      8    1.200   1.000      2.472875     -0.898076      0.188098
    9   H      9    1.200   1.000      1.163875     -1.729008     -0.644318
   10   H     10    1.200   1.000      1.683879     -0.120685     -1.231245
   11   O     11    1.520   1.000     -1.321067     -1.208059      0.026519
   12   H     12    1.200   1.000     -2.073703     -1.237405      0.634088
   13   H     13    1.200   1.000     -1.307820     -0.264107     -0.428368
 ------------------------------------------------------------------------------
 ------------------------------------------------------------------------------
 Atomic radii for non-electrostatic terms: SMD-CDS.
 ------------------------------------------------------------------------------
 Nuclear repulsion after PCM non-electrostatic terms =      189.7224739747 Hartrees.
 One-electron integrals computed using PRISM.
 PrsmSu:  requested number of processors reduced to:  10 ShMem   1 Linda.
 NBasis=   143 RedAO= T  NBF=   143
 NBsUse=   143 1.00D-06 NBFU=   143
 Harris functional with IExCor=  402 diagonalized for initial guess.
 ExpMin= 3.60D-02 ExpMax= 5.48D+03 ExpMxC= 8.25D+02 IAcc=3 IRadAn=         0 AccDes= 0.00D+00
 HarFok:  IExCor=  402 AccDes= 0.00D+00 IRadAn=         0 IDoV= 1
 ScaDFX=  1.000000  1.000000  1.000000  1.000000
 FoFCou: FMM=F IPFlag=           0 FMFlag=      100000 FMFlg1=           0
         NFxFlg=           0 DoJE=T BraDBF=F KetDBF=T FulRan=T
         Omega=  0.000000  0.000000  1.000000  0.000000  0.000000 ICntrl=     500 IOpCl=  0
         NMat0=    1 NMatS0=    1 NMatT0=    0 NMatD0=    1 NMtDS0=    0 NMtDT0=    0
         I1Cent=           4 NGrid=           0.
 Petite list used in FoFCou.
 Initial guess orbital symmetries:
       Occupied  (A) (A) (A) (A) (A) (A) (A) (A) (A) (A) (A) (A)
                 (A) (A) (A) (A) (A) (A) (A) (A) (A)
       Virtual   (A) (A) (A) (A) (A) (A) (A) (A) (A) (A) (A) (A)
                 (A) (A) (A) (A) (A) (A) (A) (A) (A) (A) (A) (A)
                 (A) (A) (A) (A) (A) (A) (A) (A) (A) (A) (A) (A)
                 (A) (A) (A) (A) (A) (A) (A) (A) (A) (A) (A) (A)
                 (A) (A) (A) (A) (A) (A) (A) (A) (A) (A) (A) (A)
                 (A) (A) (A) (A) (A) (A) (A) (A) (A) (A) (A) (A)
                 (A) (A) (A) (A) (A) (A) (A) (A) (A) (A) (A) (A)
                 (A) (A) (A) (A) (A) (A) (A) (A) (A) (A) (A) (A)
                 (A) (A) (A) (A) (A) (A) (A) (A) (A) (A) (A) (A)
                 (A) (A) (A) (A) (A) (A) (A) (A) (A) (A) (A) (A)
                 (A) (A)
 The electronic state of the initial guess is 1-A.
 Requested convergence on RMS density matrix=1.00D-08 within 128 cycles.
 Requested convergence on MAX density matrix=1.00D-06.
 Requested convergence on             energy=1.00D-06.
 No special actions if energy rises.
 CoulSu:  requested number of processors reduced to:  15 ShMem   1 Linda.
 CoulSu:  requested number of processors reduced to:  15 ShMem   1 Linda.
 CoulSu:  requested number of processors reduced to:  15 ShMem   1 Linda.
 CoulSu:  requested number of processors reduced to:  15 ShMem   1 Linda.
 CoulSu:  requested number of processors reduced to:  15 ShMem   1 Linda.
 CoulSu:  requested number of processors reduced to:  15 ShMem   1 Linda.
 CoulSu:  requested number of processors reduced to:  15 ShMem   1 Linda.
 CoulSu:  requested number of processors reduced to:  15 ShMem   1 Linda.
 CoulSu:  requested number of processors reduced to:  15 ShMem   1 Linda.
 CoulSu:  requested number of processors reduced to:  15 ShMem   1 Linda.
 CoulSu:  requested number of processors reduced to:  15 ShMem   1 Linda.
 CoulSu:  requested number of processors reduced to:  15 ShMem   1 Linda.
 CoulSu:  requested number of processors reduced to:  15 ShMem   1 Linda.
 CoulSu:  requested number of processors reduced to:  15 ShMem   1 Linda.
 CoulSu:  requested number of processors reduced to:  15 ShMem   1 Linda.
 CoulSu:  requested number of processors reduced to:  15 ShMem   1 Linda.
 Error on total polarization charges =  0.05131
 SCF Done:  E(RB3LYP) =  -269.519238883     A.U. after   13 cycles
             Convg  =    0.6511D-08             -V/T =  2.0096
 SMD-CDS (non-electrostatic) energy       (kcal/mol) =       3.13
 (included in total energy above)
 Range of M.O.s used for correlation:     1   143
 NBasis=   143 NAE=    21 NBE=    21 NFC=     0 NFV=     0
 NROrb=    143 NOA=    21 NOB=    21 NVA=   122 NVB=   122

 **** Warning!!: The largest alpha MO coefficient is  0.37108954D+02

 PrsmSu:  requested number of processors reduced to:  10 ShMem   1 Linda.
 PrsmSu:  requested number of processors reduced to:  17 ShMem   1 Linda.
 Symmetrizing basis deriv contribution to polar:
 IMax=3 JMax=2 DiffMx= 0.00D+00
 G2DrvN: will do     3 centers at a time, making    5 passes doing MaxLOS=2.
 Estimated number of processors is:   15
 Calling FoFCou, ICntrl=  3107 FMM=F I1Cent=   0 AccDes= 0.00D+00.
 CoulSu:  requested number of processors reduced to:  15 ShMem   1 Linda.
 Calling FoFCou, ICntrl=  3107 FMM=F I1Cent=   0 AccDes= 0.00D+00.
 CoulSu:  requested number of processors reduced to:  15 ShMem   1 Linda.
 Calling FoFCou, ICntrl=  3107 FMM=F I1Cent=   0 AccDes= 0.00D+00.
 CoulSu:  requested number of processors reduced to:  15 ShMem   1 Linda.
 Calling FoFCou, ICntrl=  3107 FMM=F I1Cent=   0 AccDes= 0.00D+00.
 CoulSu:  requested number of processors reduced to:  15 ShMem   1 Linda.
 Calling FoFCou, ICntrl=  3107 FMM=F I1Cent=   0 AccDes= 0.00D+00.
 CoulSu:  requested number of processors reduced to:  15 ShMem   1 Linda.
 FoFDir/FoFCou used for L=0 through L=2.
 G2PCM: DoFxE=T DoFxN=T DoGrad=T DoPD/DQ/DG=FFF NFrqRd=   0 IEInf=0 DoCFld=F IF1Alg=4.
 CoulSu:  requested number of processors reduced to:  22 ShMem   1 Linda.
 CoulSu:  requested number of processors reduced to:  22 ShMem   1 Linda.
 CoulSu:  requested number of processors reduced to:  23 ShMem   1 Linda.
 CoulSu:  requested number of processors reduced to:  15 ShMem   1 Linda.
 CoulSu:  requested number of processors reduced to:  10 ShMem   1 Linda.
 CoulSu:  requested number of processors reduced to:  22 ShMem   1 Linda.
 CoulSu:  requested number of processors reduced to:  22 ShMem   1 Linda.
 CoulSu:  requested number of processors reduced to:  15 ShMem   1 Linda.
 CoulSu:  requested number of processors reduced to:  23 ShMem   1 Linda.
 CoulSu:  requested number of processors reduced to:  23 ShMem   1 Linda.
 CoulSu:  requested number of processors reduced to:  11 ShMem   1 Linda.
 CoulSu:  requested number of processors reduced to:  15 ShMem   1 Linda.
 CoulSu:  requested number of processors reduced to:  22 ShMem   1 Linda.
 CoulSu:  requested number of processors reduced to:  22 ShMem   1 Linda.
 CoulSu:  requested number of processors reduced to:  22 ShMem   1 Linda.
 CoulSu:  requested number of processors reduced to:  22 ShMem   1 Linda.
 CoulSu:  requested number of processors reduced to:  22 ShMem   1 Linda.
 CoulSu:  requested number of processors reduced to:  22 ShMem   1 Linda.
 CoulSu:  requested number of processors reduced to:  22 ShMem   1 Linda.
 CoulSu:  requested number of processors reduced to:  22 ShMem   1 Linda.
 CoulSu:  requested number of processors reduced to:  22 ShMem   1 Linda.
 CoulSu:  requested number of processors reduced to:  22 ShMem   1 Linda.
 CoulSu:  requested number of processors reduced to:  22 ShMem   1 Linda.
 CoulSu:  requested number of processors reduced to:  22 ShMem   1 Linda.
 CoulSu:  requested number of processors reduced to:  22 ShMem   1 Linda.
 CoulSu:  requested number of processors reduced to:  22 ShMem   1 Linda.
 CoulSu:  requested number of processors reduced to:  22 ShMem   1 Linda.
 CoulSu:  requested number of processors reduced to:  22 ShMem   1 Linda.
 CoulSu:  requested number of processors reduced to:  22 ShMem   1 Linda.
 CoulSu:  requested number of processors reduced to:  22 ShMem   1 Linda.
 CoulSu:  requested number of processors reduced to:  22 ShMem   1 Linda.
 CoulSu:  requested number of processors reduced to:  22 ShMem   1 Linda.
 CoulSu:  requested number of processors reduced to:  22 ShMem   1 Linda.
 CoulSu:  requested number of processors reduced to:  22 ShMem   1 Linda.
 CoulSu:  requested number of processors reduced to:  22 ShMem   1 Linda.
 CoulSu:  requested number of processors reduced to:  22 ShMem   1 Linda.
 CoulSu:  requested number of processors reduced to:  22 ShMem   1 Linda.
 CoulSu:  requested number of processors reduced to:  22 ShMem   1 Linda.
 CoulSu:  requested number of processors reduced to:  15 ShMem   1 Linda.
 CoulSu:  requested number of processors reduced to:  23 ShMem   1 Linda.
 CoulSu:  requested number of processors reduced to:  23 ShMem   1 Linda.
 CoulSu:  requested number of processors reduced to:  15 ShMem   1 Linda.
 CoulSu:  requested number of processors reduced to:  10 ShMem   1 Linda.
 CoulSu:  requested number of processors reduced to:  10 ShMem   1 Linda.
 CoulSu:  requested number of processors reduced to:  23 ShMem   1 Linda.
 CoulSu:  requested number of processors reduced to:  23 ShMem   1 Linda.
 CoulSu:  requested number of processors reduced to:  22 ShMem   1 Linda.
 CoulSu:  requested number of processors reduced to:  22 ShMem   1 Linda.
 CoulSu:  requested number of processors reduced to:  15 ShMem   1 Linda.
 CoulSu:  requested number of processors reduced to:  10 ShMem   1 Linda.
 CoulSu:  requested number of processors reduced to:  10 ShMem   1 Linda.
 CoulSu:  requested number of processors reduced to:  23 ShMem   1 Linda.
 CoulSu:  requested number of processors reduced to:  23 ShMem   1 Linda.
 End of G2Drv Frequency-dependent properties file   721 does not exist.
 End of G2Drv Frequency-dependent properties file   722 does not exist.
          IDoAtm=1111111111111
 NEqPCM:  Using equilibrium solvation (IEInf=0, Eps=  78.3553, EpsInf=   1.7778)
          Differentiating once with respect to nuclear coordinates.
 PrRfSu:  requested number of processors reduced to:  16 ShMem   1 Linda.
 CalDSu:  requested number of processors reduced to:  22 ShMem   1 Linda.
 PrRfSu:  requested number of processors reduced to:  16 ShMem   1 Linda.
 CalDSu:  requested number of processors reduced to:  22 ShMem   1 Linda.
          There are    42 degrees of freedom in the 1st order CPHF.  IDoFFX=5.
     36 vectors produced by pass  0 Test12= 6.10D-11 2.38D-07 XBig12= 1.58D-01 1.67D-01.
 AX will form    36 AO Fock derivatives at one time.
 PrRfSu:  requested number of processors reduced to:  15 ShMem   1 Linda.
 CalDSu:  requested number of processors reduced to:  19 ShMem   1 Linda.
     36 vectors produced by pass  1 Test12= 6.10D-11 2.38D-07 XBig12= 2.00D-02 3.07D-02.
 PrRfSu:  requested number of processors reduced to:  15 ShMem   1 Linda.
 CalDSu:  requested number of processors reduced to:  19 ShMem   1 Linda.
     36 vectors produced by pass  2 Test12= 6.10D-11 2.38D-07 XBig12= 1.35D-04 2.96D-03.
 PrRfSu:  requested number of processors reduced to:  15 ShMem   1 Linda.
 CalDSu:  requested number of processors reduced to:  19 ShMem   1 Linda.
     36 vectors produced by pass  3 Test12= 6.10D-11 2.38D-07 XBig12= 3.88D-07 7.98D-05.
 PrRfSu:  requested number of processors reduced to:  15 ShMem   1 Linda.
 CalDSu:  requested number of processors reduced to:  19 ShMem   1 Linda.
     17 vectors produced by pass  4 Test12= 6.10D-11 2.38D-07 XBig12= 5.25D-10 3.10D-06.
 PrRfSu:  requested number of processors reduced to:  17 ShMem   1 Linda.
 CalDSu:  requested number of processors reduced to:  23 ShMem   1 Linda.
 Inverted reduced A of dimension   161 with in-core refinement.
 End of Minotr Frequency-dependent properties file   721 does not exist.
 End of Minotr Frequency-dependent properties file   722 does not exist.

 **********************************************************************

            Population analysis using the SCF density.

 **********************************************************************

 Orbital symmetries:
       Occupied  (A) (A) (A) (A) (A) (A) (A) (A) (A) (A) (A) (A)
                 (A) (A) (A) (A) (A) (A) (A) (A) (A)
       Virtual   (A) (A) (A) (A) (A) (A) (A) (A) (A) (A) (A) (A)
                 (A) (A) (A) (A) (A) (A) (A) (A) (A) (A) (A) (A)
                 (A) (A) (A) (A) (A) (A) (A) (A) (A) (A) (A) (A)
                 (A) (A) (A) (A) (A) (A) (A) (A) (A) (A) (A) (A)
                 (A) (A) (A) (A) (A) (A) (A) (A) (A) (A) (A) (A)
                 (A) (A) (A) (A) (A) (A) (A) (A) (A) (A) (A) (A)
                 (A) (A) (A) (A) (A) (A) (A) (A) (A) (A) (A) (A)
                 (A) (A) (A) (A) (A) (A) (A) (A) (A) (A) (A) (A)
                 (A) (A) (A) (A) (A) (A) (A) (A) (A) (A) (A) (A)
                 (A) (A) (A) (A) (A) (A) (A) (A) (A) (A) (A) (A)
                 (A) (A)
 The electronic state is 1-A.
 Alpha  occ. eigenvalues --  -19.15355 -19.10621 -10.29382 -10.23623 -10.19855
 Alpha  occ. eigenvalues --   -1.00508  -0.96096  -0.79796  -0.68325  -0.58848
 Alpha  occ. eigenvalues --   -0.52171  -0.49599  -0.45281  -0.43829  -0.40531
 Alpha  occ. eigenvalues --   -0.39666  -0.38651  -0.36507  -0.31900  -0.25076
 Alpha  occ. eigenvalues --   -0.24612
 Alpha virt. eigenvalues --   -0.10363  -0.00117   0.01677   0.02210   0.02781
 Alpha virt. eigenvalues --    0.04972   0.05533   0.05782   0.06301   0.07680
 Alpha virt. eigenvalues --    0.09809   0.11431   0.12042   0.13084   0.13443
 Alpha virt. eigenvalues --    0.13830   0.14667   0.15060   0.15725   0.16890
 Alpha virt. eigenvalues --    0.18864   0.19933   0.20721   0.20808   0.21331
 Alpha virt. eigenvalues --    0.22565   0.24877   0.25591   0.26797   0.28786
 Alpha virt. eigenvalues --    0.29305   0.30976   0.31663   0.32337   0.32925
 Alpha virt. eigenvalues --    0.35182   0.37479   0.39279   0.40475   0.42891
 Alpha virt. eigenvalues --    0.63014   0.67399   0.70411   0.73343   0.75023
 Alpha virt. eigenvalues --    0.77043   0.78493   0.80467   0.84438   0.93276
 Alpha virt. eigenvalues --    0.96250   0.96462   0.98619   1.01080   1.05416
 Alpha virt. eigenvalues --    1.07215   1.11186   1.11639   1.17901   1.20291
 Alpha virt. eigenvalues --    1.23885   1.24582   1.29540   1.32820   1.33944
 Alpha virt. eigenvalues --    1.36704   1.42802   1.44411   1.50442   1.55067
 Alpha virt. eigenvalues --    1.58287   1.62581   1.67949   1.74711   1.77985
 Alpha virt. eigenvalues --    1.78701   1.87185   1.90207   1.90938   1.91180
 Alpha virt. eigenvalues --    1.94736   2.00873   2.03486   2.09006   2.11529
 Alpha virt. eigenvalues --    2.12181   2.16992   2.23494   2.30316   2.34396
 Alpha virt. eigenvalues --    2.36447   2.39604   2.40819   2.42534   2.49993
 Alpha virt. eigenvalues --    2.54552   2.57728   2.58096   2.64368   2.66166
 Alpha virt. eigenvalues --    2.72025   2.76013   2.84338   2.86300   2.87975
 Alpha virt. eigenvalues --    2.91715   2.95936   2.99958   3.08637   3.24781
 Alpha virt. eigenvalues --    3.28357   3.38436   3.42977   3.44353   3.46037
 Alpha virt. eigenvalues --    3.53097   3.72602   4.20427   4.32442   4.41885
 Alpha virt. eigenvalues --    4.53653   4.67783
          Condensed to atoms (all electrons):
              1          2          3          4          5          6
     1  C    6.076043  -0.166040  -0.123675   0.291567  -0.056474  -0.070776
     2  C   -0.166040   5.267462   0.158813   0.000749   0.422303   0.411447
     3  O   -0.123675   0.158813   8.895004   0.016769  -0.055039  -0.054742
     4  H    0.291567   0.000749   0.016769   0.489142   0.017864  -0.028400
     5  H   -0.056474   0.422303  -0.055039   0.017864   0.605427  -0.073099
     6  H   -0.070776   0.411447  -0.054742  -0.028400  -0.073099   0.621923
     7  C   -0.397790   0.220969   0.012515  -0.026924  -0.027416   0.037720
     8  H   -0.056669  -0.006800   0.008578  -0.008154  -0.003826   0.002095
     9  H   -0.017899   0.013970  -0.016812   0.000607   0.002754  -0.001691
    10  H   -0.109056  -0.001416   0.012475   0.000895  -0.000898   0.001291
    11  O    0.176691  -0.070395  -0.140703  -0.018157  -0.003770   0.003035
    12  H   -0.037522   0.014903   0.007403  -0.001287   0.000124   0.000916
    13  H   -0.045614   0.007361   0.101106   0.004386   0.006785  -0.007521
              7          8          9         10         11         12
     1  C   -0.397790  -0.056669  -0.017899  -0.109056   0.176691  -0.037522
     2  C    0.220969  -0.006800   0.013970  -0.001416  -0.070395   0.014903
     3  O    0.012515   0.008578  -0.016812   0.012475  -0.140703   0.007403
     4  H   -0.026924  -0.008154   0.000607   0.000895  -0.018157  -0.001287
     5  H   -0.027416  -0.003826   0.002754  -0.000898  -0.003770   0.000124
     6  H    0.037720   0.002095  -0.001691   0.001291   0.003035   0.000916
     7  C    5.716128   0.412603   0.382449   0.444568  -0.060595   0.019509
     8  H    0.412603   0.480925  -0.022529  -0.019500   0.001116   0.000280
     9  H    0.382449  -0.022529   0.465959  -0.025551   0.002666  -0.001140
    10  H    0.444568  -0.019500  -0.025551   0.472927  -0.000760   0.000273
    11  O   -0.060595   0.001116   0.002666  -0.000760   8.486995   0.258440
    12  H    0.019509   0.000280  -0.001140   0.000273   0.258440   0.337725
    13  H   -0.000455  -0.000420  -0.000507   0.000642   0.182230  -0.010508
             13
     1  C   -0.045614
     2  C    0.007361
     3  O    0.101106
     4  H    0.004386
     5  H    0.006785
     6  H   -0.007521
     7  C   -0.000455
     8  H   -0.000420
     9  H   -0.000507
    10  H    0.000642
    11  O    0.182230
    12  H   -0.010508
    13  H    0.303670
 Mulliken atomic charges:
              1
     1  C    0.537214
     2  C   -0.273325
     3  O   -0.821692
     4  H    0.260942
     5  H    0.165265
     6  H    0.157801
     7  C   -0.733280
     8  H    0.212301
     9  H    0.217726
    10  H    0.224112
    11  O   -0.816794
    12  H    0.410886
    13  H    0.458845
 Sum of Mulliken atomic charges =   0.00000
 Mulliken charges with hydrogens summed into heavy atoms:
              1
     1  C    0.798156
     2  C    0.049741
     3  O   -0.821692
     7  C   -0.079141
    11  O    0.052937
 Sum of Mulliken charges with hydrogens summed into heavy atoms =   0.00000
 APT atomic charges:
              1
     1  C    0.182720
     2  C   -0.801736
     3  O   -0.813696
     4  H    0.486813
     5  H    0.459502
     6  H    0.434747
     7  C   -1.388227
     8  H    0.573671
     9  H    0.419387
    10  H    0.386554
    11  O   -1.033827
    12  H    0.737461
    13  H    0.356631
 Sum of APT charges=   0.00000
 APT Atomic charges with hydrogens summed into heavy atoms:
              1
     1  C    0.669533
     2  C    0.092514
     3  O   -0.813696
     4  H    0.000000
     5  H    0.000000
     6  H    0.000000
     7  C   -0.008615
     8  H    0.000000
     9  H    0.000000
    10  H    0.000000
    11  O    0.060265
    12  H    0.000000
    13  H    0.000000
 Sum of APT charges=   0.00000
 Electronic spatial extent (au):  <R**2>=            470.1148
 Charge=              0.0000 electrons
 Dipole moment (field-independent basis, Debye):
    X=              3.8996    Y=             -1.7727    Z=              5.2437  Tot=              6.7709
 Quadrupole moment (field-independent basis, Debye-Ang):
   XX=            -26.2180   YY=            -36.3148   ZZ=            -32.1049
   XY=              1.2212   XZ=             -4.0093   YZ=              2.0157
 Traceless Quadrupole moment (field-independent basis, Debye-Ang):
   XX=              5.3279   YY=             -4.7689   ZZ=             -0.5590
   XY=              1.2212   XZ=             -4.0093   YZ=              2.0157
 Octapole moment (field-independent basis, Debye-Ang**2):
  XXX=             -5.8974  YYY=             -0.9827  ZZZ=              7.6560  XYY=              7.3784
  XXY=             -8.8865  XXZ=              7.9632  XZZ=             -0.0274  YZZ=             -5.9528
  YYZ=              7.8142  XYZ=              0.5277
 Hexadecapole moment (field-independent basis, Debye-Ang**3):
 XXXX=           -217.8827 YYYY=           -254.4408 ZZZZ=            -97.7319 XXXY=             12.4091
 XXXZ=            -12.3163 YYYX=              4.1845 YYYZ=              3.2806 ZZZX=             -4.4788
 ZZZY=             -0.0828 XXYY=            -83.7872 XXZZ=            -55.6592 YYZZ=            -59.9030
 XXYZ=             -7.2228 YYXZ=            -10.4723 ZZXY=              4.3922
 N-N= 1.897224739747D+02 E-N=-1.009795927437D+03  KE= 2.669503301324D+02
  Exact polarizability:   0.000   0.000   0.000   0.000   0.000   0.000
 Approx polarizability:  85.469  -1.127  80.282   8.337  -5.925  67.763
 PrsmSu:  requested number of processors reduced to:  10 ShMem   1 Linda.
 PrsmSu:  requested number of processors reduced to:  10 ShMem   1 Linda.
 D2PCM: PCM CHGder 2nd derivatives, FixD1E=F FixD2E=F DoIter=F DoCFld=F I1PDM=0
 CoulSu:  requested number of processors reduced to:  10 ShMem   1 Linda.
 CoulSu:  requested number of processors reduced to:  10 ShMem   1 Linda.
 CoulSu:  requested number of processors reduced to:  10 ShMem   1 Linda.
 CoulSu:  requested number of processors reduced to:  15 ShMem   1 Linda.
 CoulSu:  requested number of processors reduced to:  22 ShMem   1 Linda.
 CoulSu:  requested number of processors reduced to:  10 ShMem   1 Linda.
 CoulSu:  requested number of processors reduced to:  10 ShMem   1 Linda.
 CoulSu:  requested number of processors reduced to:  10 ShMem   1 Linda.
 CoulSu:  requested number of processors reduced to:  22 ShMem   1 Linda.
 CoulSu:  requested number of processors reduced to:  10 ShMem   1 Linda.
 CoulSu:  requested number of processors reduced to:  10 ShMem   1 Linda.
 CoulSu:  requested number of processors reduced to:  10 ShMem   1 Linda.
 CoulSu:  requested number of processors reduced to:  10 ShMem   1 Linda.
 CoulSu:  requested number of processors reduced to:  10 ShMem   1 Linda.
 CoulSu:  requested number of processors reduced to:  10 ShMem   1 Linda.
 CoulSu:  requested number of processors reduced to:  10 ShMem   1 Linda.
 CoulSu:  requested number of processors reduced to:  10 ShMem   1 Linda.
 CoulSu:  requested number of processors reduced to:  10 ShMem   1 Linda.
 CoulSu:  requested number of processors reduced to:  22 ShMem   1 Linda.
 CoulSu:  requested number of processors reduced to:  22 ShMem   1 Linda.
 CoulSu:  requested number of processors reduced to:  21 ShMem   1 Linda.
 CoulSu:  requested number of processors reduced to:  22 ShMem   1 Linda.
 CoulSu:  requested number of processors reduced to:  22 ShMem   1 Linda.
 CoulSu:  requested number of processors reduced to:  10 ShMem   1 Linda.
 Calling FoFJK, ICntrl=    100147 FMM=F ISym2X=0 I1Cent= 0 IOpClX= 0 NMat=1 NMatS=1 NMatT=0.
 CoulSu:  requested number of processors reduced to:  10 ShMem   1 Linda.
 CalDSu:  requested number of processors reduced to:  23 ShMem   1 Linda.
 ***** Axes restored to original set *****
 -------------------------------------------------------------------
 Center     Atomic                   Forces (Hartrees/Bohr)
 Number     Number              X              Y              Z
 -------------------------------------------------------------------
      1        6          -0.007017746   -0.002432791   -0.011372789
      2        6          -0.012550985    0.001647876   -0.005609503
      3        8           0.021702684   -0.001068359    0.016352894
      4        1          -0.002496971   -0.001106153    0.001140774
      5        1           0.000371423    0.001039298   -0.002303975
      6        1           0.001809844   -0.001161827   -0.001031629
      7        6           0.001436242    0.003178020    0.005335453
      8        1          -0.000260283    0.001411318    0.000582721
      9        1          -0.001624660   -0.000474351   -0.001601825
     10        1          -0.000801625   -0.001236039   -0.000770701
     11        8           0.005577710   -0.003640987    0.000303354
     12        1          -0.002837138    0.001613858    0.001693315
     13        1          -0.003308494    0.002230137   -0.002718087
 -------------------------------------------------------------------
 Cartesian Forces:  Max     0.021702684 RMS     0.005704856

 GradGradGradGradGradGradGradGradGradGradGradGradGradGradGradGradGradGrad
 Berny optimization.
 Internal  Forces:  Max     0.026306769 RMS     0.006020490
 Search for a saddle point.
 Step number   1 out of a maximum of   57
 All quantities printed in internal units (Hartrees-Bohrs-Radians)
 Swaping is turned off.
 Second derivative matrix not updated -- analytic derivatives used.
 ITU=  0
     Eigenvalues ---   -0.24742   0.00054   0.00325   0.00620   0.01180
     Eigenvalues ---    0.01868   0.02768   0.04749   0.05069   0.05616
     Eigenvalues ---    0.06453   0.09023   0.09275   0.09910   0.10525
     Eigenvalues ---    0.11280   0.11875   0.12016   0.14398   0.18009
     Eigenvalues ---    0.18376   0.28457   0.30005   0.30876   0.31395
     Eigenvalues ---    0.32788   0.34207   0.34565   0.35393   0.36290
     Eigenvalues ---    0.38324   0.52661   0.74967
 Eigenvectors required to have negative eigenvalues:
                          A10       A18       A4        R7        R1
   1                   -0.55677  -0.45629   0.34048  -0.32369   0.18968
                          D15       D2        D13       A6        D1
   1                   -0.18409  -0.16807  -0.16798  -0.15305  -0.15161
 RFO step:  Lambda0=6.430788304D-04 Lambda=-5.74177941D-03.
 Linear search not attempted -- option 19 set.
 Iteration  1 RMS(Cart)=  0.07468280 RMS(Int)=  0.00691643
 Iteration  2 RMS(Cart)=  0.00509853 RMS(Int)=  0.00037927
 Iteration  3 RMS(Cart)=  0.00005672 RMS(Int)=  0.00037506
 Iteration  4 RMS(Cart)=  0.00000001 RMS(Int)=  0.00037506
 Variable       Old X    -DE/DX   Delta X   Delta X   Delta X     New X
                                 (Linear)    (Quad)   (Total)
    R1        2.80611   0.00671   0.00000  -0.00103  -0.00103   2.80508
    R2        2.05348  -0.00043   0.00000   0.00121   0.00121   2.05468
    R3        2.78832  -0.00450   0.00000  -0.03646  -0.03646   2.75186
    R4        2.62507   0.02309   0.00000   0.04441   0.04441   2.66948
    R5        2.09315  -0.00182   0.00000  -0.00511  -0.00511   2.08805
    R6        2.08615  -0.00218   0.00000  -0.00976  -0.00976   2.07640
    R7        2.77566   0.00043   0.00000   0.13869   0.13869   2.91435
    R8        2.08466  -0.00059   0.00000   0.00692   0.00692   2.09158
    R9        2.06818  -0.00008   0.00000   0.00143   0.00143   2.06961
   R10        2.06031   0.00011   0.00000  -0.00129  -0.00129   2.05903
   R11        1.82871   0.00206   0.00000   0.00291   0.00291   1.83161
   R12        1.98029  -0.00285   0.00000  -0.04626  -0.04626   1.93403
    A1        2.12648  -0.00139   0.00000  -0.02249  -0.02260   2.10388
    A2        2.11641   0.00066   0.00000   0.01819   0.01811   2.13452
    A3        2.03472   0.00055   0.00000   0.00667   0.00660   2.04132
    A4        1.71198   0.02631   0.00000   0.05500   0.05517   1.76714
    A5        1.92711  -0.00819   0.00000  -0.02814  -0.02827   1.89884
    A6        1.95995  -0.00622   0.00000  -0.01236  -0.01234   1.94762
    A7        1.97910  -0.00599   0.00000  -0.00333  -0.00305   1.97605
    A8        2.00256  -0.00818   0.00000  -0.02237  -0.02235   1.98021
    A9        1.88027   0.00281   0.00000   0.01112   0.01082   1.89109
   A10        1.81036   0.00002   0.00000  -0.04447  -0.04447   1.76589
   A11        1.86449  -0.00327   0.00000  -0.05206  -0.05194   1.81255
   A12        1.93799   0.00136   0.00000   0.02419   0.02317   1.96116
   A13        1.95593   0.00240   0.00000   0.03117   0.03030   1.98623
   A14        1.85719  -0.00065   0.00000  -0.03038  -0.03043   1.82676
   A15        1.92563  -0.00015   0.00000  -0.00651  -0.00625   1.91939
   A16        1.91937   0.00005   0.00000   0.02787   0.02629   1.94566
   A17        1.88566  -0.00247   0.00000  -0.03887  -0.03887   1.84679
   A18        2.66559   0.00317   0.00000   0.08825   0.08825   2.75385
    D1       -2.06088  -0.00073   0.00000   0.03429   0.03402  -2.02687
    D2        2.14992  -0.00419   0.00000   0.02071   0.02086   2.17078
    D3        0.05106   0.00207   0.00000   0.03432   0.03412   0.08518
    D4        1.19792   0.00108   0.00000   0.00904   0.00899   1.20691
    D5       -0.87446  -0.00238   0.00000  -0.00453  -0.00417  -0.87863
    D6       -2.97332   0.00388   0.00000   0.00908   0.00910  -2.96422
    D7        1.99892  -0.00080   0.00000  -0.03084  -0.03085   1.96806
    D8       -2.26617  -0.00273   0.00000  -0.08421  -0.08465  -2.35081
    D9       -0.11204   0.00009   0.00000  -0.00734  -0.00654  -0.11859
   D10       -1.03136   0.00104   0.00000  -0.05287  -0.05311  -1.08447
   D11        0.98675  -0.00089   0.00000  -0.10624  -0.10690   0.87984
   D12        3.14087   0.00194   0.00000  -0.02936  -0.02880   3.11207
   D13        0.67807   0.00100   0.00000   0.02464   0.02440   0.70248
   D14        2.71045   0.00390   0.00000   0.02145   0.02152   2.73198
   D15       -1.40187  -0.00420   0.00000   0.01521   0.01538  -1.38649
   D16       -0.47572  -0.00482   0.00000  -0.05614  -0.05614  -0.53187
   D17        2.04406  -0.00480   0.00000  -0.08661  -0.08661   1.95745
         Item               Value     Threshold  Converged?
 Maximum Force            0.026307     0.000450     NO 
 RMS     Force            0.006020     0.000300     NO 
 Maximum Displacement     0.213669     0.001800     NO 
 RMS     Displacement     0.075060     0.001200     NO 
 Predicted change in Energy=-2.786725D-03
 GradGradGradGradGradGradGradGradGradGradGradGradGradGradGradGradGradGrad

                          Input orientation:                          
 ---------------------------------------------------------------------
 Center     Atomic      Atomic             Coordinates (Angstroms)
 Number     Number       Type             X           Y           Z
 ---------------------------------------------------------------------
      1          6           0        0.002825   -0.041772   -0.018588
      2          6           0        0.005646   -0.002222    1.465265
      3          8           0        1.391617    0.015101    1.737855
      4          1           0       -0.416736    0.780926   -0.592470
      5          1           0       -0.502027   -0.906580    1.846462
      6          1           0       -0.526310    0.880078    1.847220
      7          6           0        0.447769   -1.209218   -0.766706
      8          1           0       -0.475980   -1.583265   -1.248183
      9          1           0        1.106902   -0.943793   -1.600094
     10          1           0        0.885469   -1.989474   -0.144752
     11          8           0        1.927718    1.436074   -0.272531
     12          1           0        1.712763    2.364822   -0.097429
     13          1           0        1.900978    0.967375    0.636886
 ---------------------------------------------------------------------
                    Distance matrix (angstroms):
                    1          2          3          4          5
     1  C    0.000000
     2  C    1.484383   0.000000
     3  O    2.239881   1.412629   0.000000
     4  H    1.087292   2.241874   3.047465   0.000000
     5  H    2.116880   1.104946   2.108833   2.967042   0.000000
     6  H    2.147331   1.098781   2.106796   2.444161   1.786823
     7  C    1.456223   2.575656   2.943235   2.176787   2.796847
     8  H    2.029127   3.177178   3.867701   2.454153   3.167872
     9  H    2.129269   3.390538   3.484601   2.512257   3.803786
    10  H    2.142083   2.704702   2.796197   3.093752   2.657581
    11  O    2.440027   2.963612   2.519568   2.455208   3.985201
    12  H    2.953270   3.310462   2.998765   2.699734   4.402963
    13  H    2.247445   2.284429   1.542208   2.630186   3.278600
                    6          7          8          9         10
     6  H    0.000000
     7  C    3.485197   0.000000
     8  H    3.956275   1.106817   0.000000
     9  H    4.228222   1.095191   1.743066   0.000000
    10  H    3.767678   1.089590   1.798919   1.805686   0.000000
    11  O    3.290096   3.071161   3.980712   2.846037   3.582874
    12  H    3.316561   3.849923   4.658565   3.684020   4.432443
    13  H    2.713717   2.969755   3.963481   3.047491   3.222603
                   11         12         13
    11  O    0.000000
    12  H    0.969247   0.000000
    13  H    1.023442   1.589812   0.000000
 Stoichiometry    C3H8O2
 Framework group  C1[X(C3H8O2)]
 Deg. of freedom    33
 Full point group                 C1      NOp   1
 Largest Abelian subgroup         C1      NOp   1
 Largest concise Abelian subgroup C1      NOp   1
                         Standard orientation:                         
 ---------------------------------------------------------------------
 Center     Atomic      Atomic             Coordinates (Angstroms)
 Number     Number       Type             X           Y           Z
 ---------------------------------------------------------------------
      1          6           0        0.650419   -0.160415    0.590100
      2          6           0        0.210126    1.246155    0.413764
      3          8           0       -0.652087    1.127602   -0.698915
      4          1           0        0.398315   -0.709094    1.494311
      5          1           0        1.096751    1.874201    0.212861
      6          1           0       -0.288550    1.629677    1.314627
      7          6           0        1.521512   -0.828818   -0.366467
      8          1           0        2.462335   -0.984171    0.195458
      9          1           0        1.174767   -1.838431   -0.611194
     10          1           0        1.717054   -0.245263   -1.265596
     11          8           0       -1.511309   -1.132261    0.010292
     12          1           0       -2.166476   -1.038172    0.718349
     13          1           0       -1.379374   -0.193013   -0.374208
 ---------------------------------------------------------------------
 Rotational constants (GHZ):      4.9334957      4.2993370      2.8770313
 Standard basis: 6-31++G(d,p) (6D, 7F)
 There are   143 symmetry adapted basis functions of A   symmetry.
 Integral buffers will be    131072 words long.
 Raffenetti 2 integral format.
 Two-electron integral symmetry is turned on.
   143 basis functions,   224 primitive gaussians,   143 cartesian basis functions
    21 alpha electrons       21 beta electrons
       nuclear repulsion energy       186.5938791280 Hartrees.
 NAtoms=   13 NActive=   13 NUniq=   13 SFac= 1.00D+00 NAtFMM=   50 NAOKFM=F Big=F
 ------------------------------------------------------------------------------
 Polarizable Continuum Model (PCM)
 =================================
 Model                : PCM.
 Atomic radii         : SMD-Coulomb.
 Polarization charges : Total charges.
 Charge compensation  : None.
 Solution method      : Matrix inversion.
 Cavity type          : VdW (van der Waals Surface) (Alpha=1.000).
 Cavity algorithm     : GePol (No added spheres)
                        Default sphere list used, NSphG=   13.
                        Lebedev-Laikov grids with approx.  5.0 points / Ang**2.
                        Smoothing algorithm: Karplus/York (Gamma=1.0000).
                        Polarization charges: spherical gaussians, with
                                              point-specific exponents (IZeta= 3).
                        Self-potential: point-specific (ISelfS= 7).
                        Self-field    : sphere-specific E.n sum rule (ISelfD= 2).
 1st derivatives      : Analytical E(r).r(x)/FMM algorithm (CHGder, D1EAlg=3).
                        Cavity 1st derivative terms included.
 Solvent              : Water, Eps=  78.355300 Eps(inf)=   1.777849
 ------------------------------------------------------------------------------
 Spheres list:
 ISph  on   Nord    Re0     Alpha      Xe            Ye            Ze
    1   C      1    1.850   1.000      0.650419     -0.160415      0.590100
    2   C      2    1.850   1.000      0.210126      1.246155      0.413764
    3   O      3    1.520   1.000     -0.652087      1.127602     -0.698915
    4   H      4    1.200   1.000      0.398315     -0.709094      1.494311
    5   H      5    1.200   1.000      1.096751      1.874201      0.212861
    6   H      6    1.200   1.000     -0.288550      1.629677      1.314627
    7   C      7    1.850   1.000      1.521512     -0.828818     -0.366467
    8   H      8    1.200   1.000      2.462335     -0.984171      0.195458
    9   H      9    1.200   1.000      1.174767     -1.838431     -0.611194
   10   H     10    1.200   1.000      1.717054     -0.245263     -1.265596
   11   O     11    1.520   1.000     -1.511309     -1.132261      0.010292
   12   H     12    1.200   1.000     -2.166476     -1.038172      0.718349
   13   H     13    1.200   1.000     -1.379374     -0.193013     -0.374208
 ------------------------------------------------------------------------------
 ------------------------------------------------------------------------------
 Atomic radii for non-electrostatic terms: SMD-CDS.
 ------------------------------------------------------------------------------
 Nuclear repulsion after PCM non-electrostatic terms =      186.5985831536 Hartrees.
 One-electron integrals computed using PRISM.
 PrsmSu:  requested number of processors reduced to:  10 ShMem   1 Linda.
 NBasis=   143 RedAO= T  NBF=   143
 NBsUse=   143 1.00D-06 NBFU=   143
 Initial guess read from the read-write file.
 B after Tr=     0.000000    0.000000    0.000000
         Rot=    1.000000    0.000000    0.000000    0.000000 Ang=   0.00 deg.
 Initial guess orbital symmetries:
       Occupied  (A) (A) (A) (A) (A) (A) (A) (A) (A) (A) (A) (A)
                 (A) (A) (A) (A) (A) (A) (A) (A) (A)
       Virtual   (A) (A) (A) (A) (A) (A) (A) (A) (A) (A) (A) (A)
                 (A) (A) (A) (A) (A) (A) (A) (A) (A) (A) (A) (A)
                 (A) (A) (A) (A) (A) (A) (A) (A) (A) (A) (A) (A)
                 (A) (A) (A) (A) (A) (A) (A) (A) (A) (A) (A) (A)
                 (A) (A) (A) (A) (A) (A) (A) (A) (A) (A) (A) (A)
                 (A) (A) (A) (A) (A) (A) (A) (A) (A) (A) (A) (A)
                 (A) (A) (A) (A) (A) (A) (A) (A) (A) (A) (A) (A)
                 (A) (A) (A) (A) (A) (A) (A) (A) (A) (A) (A) (A)
                 (A) (A) (A) (A) (A) (A) (A) (A) (A) (A) (A) (A)
                 (A) (A) (A) (A) (A) (A) (A) (A) (A) (A) (A) (A)
                 (A) (A)
 Harris functional with IExCor=  402 diagonalized for initial guess.
 ExpMin= 3.60D-02 ExpMax= 5.48D+03 ExpMxC= 8.25D+02 IAcc=3 IRadAn=         0 AccDes= 0.00D+00
 HarFok:  IExCor=  402 AccDes= 0.00D+00 IRadAn=         0 IDoV= 1
 ScaDFX=  1.000000  1.000000  1.000000  1.000000
 FoFCou: FMM=F IPFlag=           0 FMFlag=      100000 FMFlg1=           0
         NFxFlg=           0 DoJE=T BraDBF=F KetDBF=T FulRan=T
         Omega=  0.000000  0.000000  1.000000  0.000000  0.000000 ICntrl=     500 IOpCl=  0
         NMat0=    1 NMatS0=    1 NMatT0=    0 NMatD0=    1 NMtDS0=    0 NMtDT0=    0
         I1Cent=           4 NGrid=           0.
 Petite list used in FoFCou.
 Requested convergence on RMS density matrix=1.00D-08 within 128 cycles.
 Requested convergence on MAX density matrix=1.00D-06.
 Requested convergence on             energy=1.00D-06.
 No special actions if energy rises.
 CoulSu:  requested number of processors reduced to:  14 ShMem   1 Linda.
 CoulSu:  requested number of processors reduced to:  14 ShMem   1 Linda.
 CoulSu:  requested number of processors reduced to:  15 ShMem   1 Linda.
 CoulSu:  requested number of processors reduced to:  15 ShMem   1 Linda.
 CoulSu:  requested number of processors reduced to:  15 ShMem   1 Linda.
 CoulSu:  requested number of processors reduced to:  15 ShMem   1 Linda.
 CoulSu:  requested number of processors reduced to:  15 ShMem   1 Linda.
 CoulSu:  requested number of processors reduced to:  15 ShMem   1 Linda.
 CoulSu:  requested number of processors reduced to:  15 ShMem   1 Linda.
 CoulSu:  requested number of processors reduced to:  15 ShMem   1 Linda.
 CoulSu:  requested number of processors reduced to:  15 ShMem   1 Linda.
 CoulSu:  requested number of processors reduced to:  15 ShMem   1 Linda.
 CoulSu:  requested number of processors reduced to:  15 ShMem   1 Linda.
 CoulSu:  requested number of processors reduced to:  15 ShMem   1 Linda.
 CoulSu:  requested number of processors reduced to:  15 ShMem   1 Linda.
 Error on total polarization charges =  0.05210
 SCF Done:  E(RB3LYP) =  -269.522124621     A.U. after   12 cycles
             Convg  =    0.4327D-08             -V/T =  2.0098
 SMD-CDS (non-electrostatic) energy       (kcal/mol) =       2.95
 (included in total energy above)
 PrsmSu:  requested number of processors reduced to:  10 ShMem   1 Linda.
 PrsmSu:  requested number of processors reduced to:  23 ShMem   1 Linda.
 D1PCM: PCM CHGder 1st derivatives, ID1Alg=3 FixD1E=F DoIter=F DoCFld=F I1PDM=0.
 CoulSu:  requested number of processors reduced to:  22 ShMem   1 Linda.
 CoulSu:  requested number of processors reduced to:  22 ShMem   1 Linda.
 CoulSu:  requested number of processors reduced to:  15 ShMem   1 Linda.
 CoulSu:  requested number of processors reduced to:  10 ShMem   1 Linda.
 CoulSu:  requested number of processors reduced to:  10 ShMem   1 Linda.
 CoulSu:  requested number of processors reduced to:  22 ShMem   1 Linda.
 CoulSu:  requested number of processors reduced to:  22 ShMem   1 Linda.
 Calling FoFJK, ICntrl=      2127 FMM=F ISym2X=0 I1Cent= 0 IOpClX= 0 NMat=1 NMatS=1 NMatT=0.
 CoulSu:  requested number of processors reduced to:  16 ShMem   1 Linda.
 ***** Axes restored to original set *****
 -------------------------------------------------------------------
 Center     Atomic                   Forces (Hartrees/Bohr)
 Number     Number              X              Y              Z
 -------------------------------------------------------------------
      1        6          -0.001468709    0.000921306   -0.001717321
      2        6           0.003097602    0.000159179   -0.001033651
      3        8          -0.001186202   -0.000465237    0.002944151
      4        1          -0.000397915   -0.000131972   -0.000007775
      5        1          -0.000022194   -0.000008977    0.000121503
      6        1          -0.000037362   -0.000046213    0.000090700
      7        6           0.001138567   -0.000323454    0.000310722
      8        1          -0.000347107   -0.000220851    0.000114534
      9        1          -0.000707976    0.000176600   -0.000366021
     10        1          -0.000132794   -0.000331488   -0.000074926
     11        8           0.001088947    0.001479344   -0.000864641
     12        1          -0.000794448    0.000005526   -0.000541801
     13        1          -0.000230410   -0.001213765    0.001024526
 -------------------------------------------------------------------
 Cartesian Forces:  Max     0.003097602 RMS     0.000977181

 GradGradGradGradGradGradGradGradGradGradGradGradGradGradGradGradGradGrad
 Berny optimization.
 Internal  Forces:  Max     0.005909801 RMS     0.001159873
 Search for a saddle point.
 Step number   2 out of a maximum of   57
 All quantities printed in internal units (Hartrees-Bohrs-Radians)
 Swaping is turned off.
 Update second derivatives using D2CorX and points    1    2
 ITU=  0  0
     Eigenvalues ---   -0.24457   0.00108   0.00326   0.00679   0.01211
     Eigenvalues ---    0.01845   0.02682   0.04579   0.05048   0.05556
     Eigenvalues ---    0.06500   0.09004   0.09169   0.09860   0.10516
     Eigenvalues ---    0.11221   0.11859   0.12012   0.14342   0.17970
     Eigenvalues ---    0.18342   0.28454   0.30051   0.30879   0.31335
     Eigenvalues ---    0.32777   0.34237   0.34580   0.35394   0.36301
     Eigenvalues ---    0.38416   0.52661   0.74406
 Eigenvectors required to have negative eigenvalues:
                          A10       A18       A4        R7        R1
   1                   -0.56678  -0.45038   0.34667  -0.30714   0.19002
                          D15       D13       D2        A6        D1
   1                   -0.18197  -0.16630  -0.16335  -0.15571  -0.14843
 RFO step:  Lambda0=4.351140221D-05 Lambda=-6.21466971D-04.
 Linear search not attempted -- option 19 set.
 Iteration  1 RMS(Cart)=  0.08033412 RMS(Int)=  0.00521082
 Iteration  2 RMS(Cart)=  0.00496888 RMS(Int)=  0.00013244
 Iteration  3 RMS(Cart)=  0.00001555 RMS(Int)=  0.00013155
 Iteration  4 RMS(Cart)=  0.00000001 RMS(Int)=  0.00013155
 Variable       Old X    -DE/DX   Delta X   Delta X   Delta X     New X
                                 (Linear)    (Quad)   (Total)
    R1        2.80508   0.00175   0.00000   0.00324   0.00324   2.80831
    R2        2.05468   0.00007   0.00000   0.00090   0.00090   2.05559
    R3        2.75186   0.00052   0.00000  -0.00649  -0.00649   2.74537
    R4        2.66948  -0.00052   0.00000  -0.00814  -0.00814   2.66134
    R5        2.08805   0.00005   0.00000   0.00120   0.00120   2.08924
    R6        2.07640   0.00002   0.00000   0.00108   0.00108   2.07748
    R7        2.91435   0.00043   0.00000   0.00900   0.00900   2.92335
    R8        2.09158   0.00033   0.00000   0.00810   0.00810   2.09968
    R9        2.06961  -0.00011   0.00000  -0.00282  -0.00282   2.06680
   R10        2.05903   0.00013   0.00000  -0.00016  -0.00016   2.05887
   R11        1.83161   0.00005   0.00000  -0.00111  -0.00111   1.83051
   R12        1.93403   0.00191   0.00000   0.00768   0.00768   1.94171
    A1        2.10388  -0.00013   0.00000  -0.00620  -0.00620   2.09768
    A2        2.13452   0.00017   0.00000   0.00664   0.00664   2.14115
    A3        2.04132  -0.00008   0.00000  -0.00008  -0.00008   2.04124
    A4        1.76714   0.00591   0.00000   0.01513   0.01512   1.78226
    A5        1.89884  -0.00139   0.00000  -0.00061  -0.00064   1.89820
    A6        1.94762  -0.00140   0.00000  -0.00566  -0.00566   1.94196
    A7        1.97605  -0.00158   0.00000  -0.00041  -0.00044   1.97561
    A8        1.98021  -0.00173   0.00000  -0.00395  -0.00394   1.97627
    A9        1.89109   0.00033   0.00000  -0.00365  -0.00367   1.88742
   A10        1.76589   0.00020   0.00000   0.01513   0.01513   1.78102
   A11        1.81255  -0.00038   0.00000  -0.03442  -0.03447   1.77808
   A12        1.96116  -0.00015   0.00000   0.01294   0.01258   1.97374
   A13        1.98623   0.00051   0.00000   0.01133   0.01090   1.99713
   A14        1.82676  -0.00011   0.00000  -0.00180  -0.00175   1.82501
   A15        1.91939  -0.00026   0.00000  -0.01940  -0.01954   1.89985
   A16        1.94566   0.00027   0.00000   0.02434   0.02377   1.96943
   A17        1.84679   0.00083   0.00000   0.01002   0.01002   1.85681
   A18        2.75385   0.00055   0.00000   0.04216   0.04216   2.79601
    D1       -2.02687  -0.00029   0.00000   0.05151   0.05152  -1.97534
    D2        2.17078  -0.00089   0.00000   0.04461   0.04460   2.21538
    D3        0.08518   0.00045   0.00000   0.05301   0.05299   0.13817
    D4        1.20691   0.00020   0.00000   0.04669   0.04671   1.25363
    D5       -0.87863  -0.00040   0.00000   0.03979   0.03979  -0.83884
    D6       -2.96422   0.00095   0.00000   0.04819   0.04818  -2.91604
    D7        1.96806  -0.00046   0.00000  -0.16775  -0.16767   1.80039
    D8       -2.35081  -0.00086   0.00000  -0.18304  -0.18325  -2.53407
    D9       -0.11859  -0.00017   0.00000  -0.12794  -0.12779  -0.24638
   D10       -1.08447   0.00002   0.00000  -0.17208  -0.17201  -1.25648
   D11        0.87984  -0.00038   0.00000  -0.18737  -0.18759   0.69225
   D12        3.11207   0.00031   0.00000  -0.13226  -0.13213   2.97994
   D13        0.70248   0.00009   0.00000  -0.01698  -0.01699   0.68548
   D14        2.73198   0.00119   0.00000  -0.00914  -0.00914   2.72284
   D15       -1.38649  -0.00105   0.00000  -0.01764  -0.01763  -1.40412
   D16       -0.53187  -0.00130   0.00000  -0.03510  -0.03510  -0.56697
   D17        1.95745  -0.00141   0.00000  -0.02531  -0.02531   1.93214
         Item               Value     Threshold  Converged?
 Maximum Force            0.005910     0.000450     NO 
 RMS     Force            0.001160     0.000300     NO 
 Maximum Displacement     0.247797     0.001800     NO 
 RMS     Displacement     0.080635     0.001200     NO 
 Predicted change in Energy=-3.453926D-04
 GradGradGradGradGradGradGradGradGradGradGradGradGradGradGradGradGradGrad

                          Input orientation:                          
 ---------------------------------------------------------------------
 Center     Atomic      Atomic             Coordinates (Angstroms)
 Number     Number       Type             X           Y           Z
 ---------------------------------------------------------------------
      1          6           0        0.016563   -0.047438   -0.033197
      2          6           0       -0.009585   -0.008574    1.452161
      3          8           0        1.361227    0.044333    1.770654
      4          1           0       -0.371612    0.789702   -0.609181
      5          1           0       -0.507795   -0.923202    1.823036
      6          1           0       -0.573746    0.861003    1.818410
      7          6           0        0.449071   -1.216247   -0.779798
      8          1           0       -0.519546   -1.643126   -1.117593
      9          1           0        0.975773   -0.963762   -1.704470
     10          1           0        0.974085   -1.962392   -0.184271
     11          8           0        2.014940    1.463675   -0.228876
     12          1           0        1.740995    2.382599   -0.091622
     13          1           0        1.910265    0.991482    0.677682
 ---------------------------------------------------------------------
                    Distance matrix (angstroms):
                    1          2          3          4          5
     1  C    0.000000
     2  C    1.486096   0.000000
     3  O    2.251759   1.408319   0.000000
     4  H    1.087769   2.239964   3.036761   0.000000
     5  H    2.118375   1.105580   2.105258   2.977963   0.000000
     6  H    2.145269   1.099354   2.100797   2.437035   1.785430
     7  C    1.452787   2.578853   2.987624   2.174043   2.788586
     8  H    2.002385   3.087953   3.837551   2.489783   3.027495
     9  H    2.133750   3.442039   3.638862   2.467741   3.826998
    10  H    2.146327   2.731835   2.828172   3.092810   2.702807
    11  O    2.513019   3.015312   2.537714   2.508885   4.033822
    12  H    2.980296   3.341483   3.013268   2.695978   4.432979
    13  H    2.273942   2.299077   1.546972   2.627488   3.290117
                    6          7          8          9         10
     6  H    0.000000
     7  C    3.480203   0.000000
     8  H    3.859238   1.111102   0.000000
     9  H    4.259280   1.093701   1.744115   0.000000
    10  H    3.791843   1.089507   1.789959   1.818865   0.000000
    11  O    3.354980   3.152371   4.106781   3.024847   3.580965
    12  H    3.364745   3.885145   4.729601   3.792754   4.413127
    13  H    2.736530   3.022152   4.008510   3.220389   3.216329
                   11         12         13
    11  O    0.000000
    12  H    0.968662   0.000000
    13  H    1.027507   1.598652   0.000000
 Stoichiometry    C3H8O2
 Framework group  C1[X(C3H8O2)]
 Deg. of freedom    33
 Full point group                 C1      NOp   1
 Largest Abelian subgroup         C1      NOp   1
 Largest concise Abelian subgroup C1      NOp   1
                         Standard orientation:                         
 ---------------------------------------------------------------------
 Center     Atomic      Atomic             Coordinates (Angstroms)
 Number     Number       Type             X           Y           Z
 ---------------------------------------------------------------------
      1          6           0        0.669160   -0.179684    0.576791
      2          6           0        0.265786    1.239420    0.398146
      3          8           0       -0.644220    1.155416   -0.673393
      4          1           0        0.391993   -0.717463    1.480790
      5          1           0        1.164769    1.837306    0.160093
      6          1           0       -0.181945    1.645320    1.316493
      7          6           0        1.524150   -0.877070   -0.368321
      8          1           0        2.499130   -0.880264    0.164550
      9          1           0        1.267824   -1.934516   -0.479170
     10          1           0        1.647107   -0.369250   -1.324368
     11          8           0       -1.598696   -1.096958    0.001722
     12          1           0       -2.191246   -0.995891    0.761311
     13          1           0       -1.408883   -0.148902   -0.346032
 ---------------------------------------------------------------------
 Rotational constants (GHZ):      4.9430972      4.1424765      2.7816433
 Standard basis: 6-31++G(d,p) (6D, 7F)
 There are   143 symmetry adapted basis functions of A   symmetry.
 Integral buffers will be    131072 words long.
 Raffenetti 2 integral format.
 Two-electron integral symmetry is turned on.
   143 basis functions,   224 primitive gaussians,   143 cartesian basis functions
    21 alpha electrons       21 beta electrons
       nuclear repulsion energy       185.3674796898 Hartrees.
 NAtoms=   13 NActive=   13 NUniq=   13 SFac= 1.00D+00 NAtFMM=   50 NAOKFM=F Big=F
 ------------------------------------------------------------------------------
 Polarizable Continuum Model (PCM)
 =================================
 Model                : PCM.
 Atomic radii         : SMD-Coulomb.
 Polarization charges : Total charges.
 Charge compensation  : None.
 Solution method      : Matrix inversion.
 Cavity type          : VdW (van der Waals Surface) (Alpha=1.000).
 Cavity algorithm     : GePol (No added spheres)
                        Default sphere list used, NSphG=   13.
                        Lebedev-Laikov grids with approx.  5.0 points / Ang**2.
                        Smoothing algorithm: Karplus/York (Gamma=1.0000).
                        Polarization charges: spherical gaussians, with
                                              point-specific exponents (IZeta= 3).
                        Self-potential: point-specific (ISelfS= 7).
                        Self-field    : sphere-specific E.n sum rule (ISelfD= 2).
 1st derivatives      : Analytical E(r).r(x)/FMM algorithm (CHGder, D1EAlg=3).
                        Cavity 1st derivative terms included.
 Solvent              : Water, Eps=  78.355300 Eps(inf)=   1.777849
 ------------------------------------------------------------------------------
 Spheres list:
 ISph  on   Nord    Re0     Alpha      Xe            Ye            Ze
    1   C      1    1.850   1.000      0.669160     -0.179684      0.576791
    2   C      2    1.850   1.000      0.265786      1.239420      0.398146
    3   O      3    1.520   1.000     -0.644220      1.155416     -0.673393
    4   H      4    1.200   1.000      0.391993     -0.717463      1.480790
    5   H      5    1.200   1.000      1.164769      1.837306      0.160093
    6   H      6    1.200   1.000     -0.181945      1.645320      1.316493
    7   C      7    1.850   1.000      1.524150     -0.877070     -0.368321
    8   H      8    1.200   1.000      2.499130     -0.880264      0.164550
    9   H      9    1.200   1.000      1.267824     -1.934516     -0.479170
   10   H     10    1.200   1.000      1.647107     -0.369250     -1.324368
   11   O     11    1.520   1.000     -1.598696     -1.096958      0.001722
   12   H     12    1.200   1.000     -2.191246     -0.995891      0.761311
   13   H     13    1.200   1.000     -1.408883     -0.148902     -0.346032
 ------------------------------------------------------------------------------
 ------------------------------------------------------------------------------
 Atomic radii for non-electrostatic terms: SMD-CDS.
 ------------------------------------------------------------------------------
 Nuclear repulsion after PCM non-electrostatic terms =      185.3721438785 Hartrees.
 One-electron integrals computed using PRISM.
 PrsmSu:  requested number of processors reduced to:  10 ShMem   1 Linda.
 NBasis=   143 RedAO= T  NBF=   143
 NBsUse=   143 1.00D-06 NBFU=   143
 Initial guess read from the read-write file.
 B after Tr=     0.000000    0.000000    0.000000
         Rot=    1.000000    0.000000    0.000000    0.000000 Ang=   0.00 deg.
 Initial guess orbital symmetries:
       Occupied  (A) (A) (A) (A) (A) (A) (A) (A) (A) (A) (A) (A)
                 (A) (A) (A) (A) (A) (A) (A) (A) (A)
       Virtual   (A) (A) (A) (A) (A) (A) (A) (A) (A) (A) (A) (A)
                 (A) (A) (A) (A) (A) (A) (A) (A) (A) (A) (A) (A)
                 (A) (A) (A) (A) (A) (A) (A) (A) (A) (A) (A) (A)
                 (A) (A) (A) (A) (A) (A) (A) (A) (A) (A) (A) (A)
                 (A) (A) (A) (A) (A) (A) (A) (A) (A) (A) (A) (A)
                 (A) (A) (A) (A) (A) (A) (A) (A) (A) (A) (A) (A)
                 (A) (A) (A) (A) (A) (A) (A) (A) (A) (A) (A) (A)
                 (A) (A) (A) (A) (A) (A) (A) (A) (A) (A) (A) (A)
                 (A) (A) (A) (A) (A) (A) (A) (A) (A) (A) (A) (A)
                 (A) (A) (A) (A) (A) (A) (A) (A) (A) (A) (A) (A)
                 (A) (A)
 Harris functional with IExCor=  402 diagonalized for initial guess.
 ExpMin= 3.60D-02 ExpMax= 5.48D+03 ExpMxC= 8.25D+02 IAcc=3 IRadAn=         0 AccDes= 0.00D+00
 HarFok:  IExCor=  402 AccDes= 0.00D+00 IRadAn=         0 IDoV= 1
 ScaDFX=  1.000000  1.000000  1.000000  1.000000
 FoFCou: FMM=F IPFlag=           0 FMFlag=      100000 FMFlg1=           0
         NFxFlg=           0 DoJE=T BraDBF=F KetDBF=T FulRan=T
         Omega=  0.000000  0.000000  1.000000  0.000000  0.000000 ICntrl=     500 IOpCl=  0
         NMat0=    1 NMatS0=    1 NMatT0=    0 NMatD0=    1 NMtDS0=    0 NMtDT0=    0
         I1Cent=           4 NGrid=           0.
 Petite list used in FoFCou.
 Requested convergence on RMS density matrix=1.00D-08 within 128 cycles.
 Requested convergence on MAX density matrix=1.00D-06.
 Requested convergence on             energy=1.00D-06.
 No special actions if energy rises.
 CoulSu:  requested number of processors reduced to:  14 ShMem   1 Linda.
 CoulSu:  requested number of processors reduced to:  14 ShMem   1 Linda.
 CoulSu:  requested number of processors reduced to:  15 ShMem   1 Linda.
 CoulSu:  requested number of processors reduced to:  15 ShMem   1 Linda.
 CoulSu:  requested number of processors reduced to:  15 ShMem   1 Linda.
 CoulSu:  requested number of processors reduced to:  15 ShMem   1 Linda.
 CoulSu:  requested number of processors reduced to:  15 ShMem   1 Linda.
 CoulSu:  requested number of processors reduced to:  15 ShMem   1 Linda.
 CoulSu:  requested number of processors reduced to:  15 ShMem   1 Linda.
 CoulSu:  requested number of processors reduced to:  15 ShMem   1 Linda.
 CoulSu:  requested number of processors reduced to:  15 ShMem   1 Linda.
 CoulSu:  requested number of processors reduced to:  15 ShMem   1 Linda.
 CoulSu:  requested number of processors reduced to:  15 ShMem   1 Linda.
 CoulSu:  requested number of processors reduced to:  15 ShMem   1 Linda.
 CoulSu:  requested number of processors reduced to:  15 ShMem   1 Linda.
 Error on total polarization charges =  0.05246
 SCF Done:  E(RB3LYP) =  -269.522373230     A.U. after   12 cycles
             Convg  =    0.3832D-08             -V/T =  2.0099
 SMD-CDS (non-electrostatic) energy       (kcal/mol) =       2.93
 (included in total energy above)
 PrsmSu:  requested number of processors reduced to:  10 ShMem   1 Linda.
 PrsmSu:  requested number of processors reduced to:  23 ShMem   1 Linda.
 D1PCM: PCM CHGder 1st derivatives, ID1Alg=3 FixD1E=F DoIter=F DoCFld=F I1PDM=0.
 CoulSu:  requested number of processors reduced to:  22 ShMem   1 Linda.
 CoulSu:  requested number of processors reduced to:  22 ShMem   1 Linda.
 CoulSu:  requested number of processors reduced to:  15 ShMem   1 Linda.
 CoulSu:  requested number of processors reduced to:  10 ShMem   1 Linda.
 CoulSu:  requested number of processors reduced to:  10 ShMem   1 Linda.
 CoulSu:  requested number of processors reduced to:  22 ShMem   1 Linda.
 CoulSu:  requested number of processors reduced to:  22 ShMem   1 Linda.
 Calling FoFJK, ICntrl=      2127 FMM=F ISym2X=0 I1Cent= 0 IOpClX= 0 NMat=1 NMatS=1 NMatT=0.
 CoulSu:  requested number of processors reduced to:  16 ShMem   1 Linda.
 ***** Axes restored to original set *****
 -------------------------------------------------------------------
 Center     Atomic                   Forces (Hartrees/Bohr)
 Number     Number              X              Y              Z
 -------------------------------------------------------------------
      1        6          -0.000123063   -0.000283709   -0.000320730
      2        6          -0.002066799   -0.000178605    0.000641679
      3        8           0.001966740    0.000069748   -0.000283248
[...]
    R9        2.06738   0.00000   0.00000  -0.00001  -0.00001   2.06737
   R10        2.05919   0.00000   0.00000   0.00000   0.00000   2.05919
   R11        1.83103   0.00000   0.00000   0.00000   0.00000   1.83103
   R12        1.93461  -0.00003   0.00000  -0.00004  -0.00004   1.93458
    A1        2.09964   0.00000   0.00000  -0.00002  -0.00002   2.09962
    A2        2.13810   0.00000   0.00000   0.00001   0.00001   2.13812
    A3        2.04224   0.00000   0.00000   0.00001   0.00001   2.04225
    A4        1.78296   0.00004   0.00000   0.00011   0.00011   1.78307
    A5        1.89608  -0.00001   0.00000  -0.00005  -0.00005   1.89603
    A6        1.94169  -0.00001   0.00000  -0.00003  -0.00003   1.94166
    A7        1.97533  -0.00001   0.00000   0.00000   0.00000   1.97533
    A8        1.97826  -0.00001   0.00000   0.00000   0.00000   1.97826
    A9        1.88723   0.00000   0.00000  -0.00003  -0.00003   1.88720
   A10        1.76414   0.00002   0.00000   0.00002   0.00002   1.76416
   A11        1.78255   0.00000   0.00000  -0.00010  -0.00010   1.78246
   A12        1.97359   0.00000   0.00000   0.00003   0.00003   1.97362
   A13        1.99564   0.00000   0.00000   0.00003   0.00003   1.99567
   A14        1.82604   0.00000   0.00000   0.00000   0.00000   1.82604
   A15        1.90342   0.00000   0.00000  -0.00004  -0.00004   1.90339
   A16        1.96370   0.00000   0.00000   0.00005   0.00005   1.96375
   A17        1.84710   0.00000   0.00000   0.00001   0.00001   1.84711
   A18        2.79316   0.00001   0.00000   0.00034   0.00034   2.79349
    D1       -1.99980  -0.00001   0.00000   0.00000   0.00000  -1.99980
    D2        2.19181  -0.00001   0.00000  -0.00004  -0.00004   2.19178
    D3        0.11634   0.00000   0.00000   0.00005   0.00005   0.11640
    D4        1.23034   0.00000   0.00000  -0.00004  -0.00004   1.23029
    D5       -0.86123   0.00000   0.00000  -0.00008  -0.00008  -0.86131
    D6       -2.93670   0.00001   0.00000   0.00001   0.00001  -2.93669
    D7        1.85743   0.00000   0.00000  -0.00036  -0.00036   1.85707
    D8       -2.47346   0.00000   0.00000  -0.00040  -0.00040  -2.47386
    D9       -0.19568   0.00000   0.00000  -0.00027  -0.00027  -0.19595
   D10       -1.19836   0.00000   0.00000  -0.00040  -0.00040  -1.19876
   D11        0.75394   0.00000   0.00000  -0.00044  -0.00044   0.75350
   D12        3.03172   0.00000   0.00000  -0.00031  -0.00031   3.03140
   D13        0.70993   0.00000   0.00000   0.00011   0.00011   0.71004
   D14        2.74507   0.00001   0.00000   0.00012   0.00012   2.74519
   D15       -1.38078  -0.00001   0.00000   0.00008   0.00008  -1.38069
   D16       -0.53715  -0.00001   0.00000  -0.00069  -0.00069  -0.53784
   D17        1.82634   0.00000   0.00000   0.00016   0.00016   1.82650
         Item               Value     Threshold  Converged?
 Maximum Force            0.000038     0.000450     YES
 RMS     Force            0.000009     0.000300     YES
 Maximum Displacement     0.000837     0.001800     YES
 RMS     Displacement     0.000283     0.001200     YES
 Predicted change in Energy=-1.053273D-08
 Optimization completed.
    -- Stationary point found.
                           ----------------------------
                           !   Optimized Parameters   !
                           ! (Angstroms and Degrees)  !
 --------------------------                            --------------------------
 ! Name  Definition              Value          Derivative Info.                !
 --------------------------------------------------------------------------------
 ! R1    R(1,2)                  1.4863         -DE/DX =    0.0                 !
 ! R2    R(1,4)                  1.0879         -DE/DX =    0.0                 !
 ! R3    R(1,7)                  1.4529         -DE/DX =    0.0                 !
 ! R4    R(2,3)                  1.4104         -DE/DX =    0.0                 !
 ! R5    R(2,5)                  1.1054         -DE/DX =    0.0                 !
 ! R6    R(2,6)                  1.0991         -DE/DX =    0.0                 !
 ! R7    R(3,13)                 1.5546         -DE/DX =    0.0                 !
 ! R8    R(7,8)                  1.1106         -DE/DX =    0.0                 !
 ! R9    R(7,9)                  1.094          -DE/DX =    0.0                 !
 ! R10   R(7,10)                 1.0897         -DE/DX =    0.0                 !
 ! R11   R(11,12)                0.9689         -DE/DX =    0.0                 !
 ! R12   R(11,13)                1.0238         -DE/DX =    0.0                 !
 ! A1    A(2,1,4)              120.3004         -DE/DX =    0.0                 !
 ! A2    A(2,1,7)              122.5042         -DE/DX =    0.0                 !
 ! A3    A(4,1,7)              117.0118         -DE/DX =    0.0                 !
 ! A4    A(1,2,3)              102.1561         -DE/DX =    0.0                 !
 ! A5    A(1,2,5)              108.6374         -DE/DX =    0.0                 !
 ! A6    A(1,2,6)              111.2508         -DE/DX =    0.0                 !
 ! A7    A(3,2,5)              113.1781         -DE/DX =    0.0                 !
 ! A8    A(3,2,6)              113.346          -DE/DX =    0.0                 !
 ! A9    A(5,2,6)              108.1304         -DE/DX =    0.0                 !
 ! A10   A(2,3,13)             101.0779         -DE/DX =    0.0                 !
 ! A11   A(1,7,8)              102.1328         -DE/DX =    0.0                 !
 ! A12   A(1,7,9)              113.0781         -DE/DX =    0.0                 !
 ! A13   A(1,7,10)             114.3415         -DE/DX =    0.0                 !
 ! A14   A(8,7,9)              104.6242         -DE/DX =    0.0                 !
 ! A15   A(8,7,10)             109.0581         -DE/DX =    0.0                 !
 ! A16   A(9,7,10)             112.5119         -DE/DX =    0.0                 !
 ! A17   A(12,11,13)           105.8312         -DE/DX =    0.0                 !
 ! A18   A(3,13,11)            160.036          -DE/DX =    0.0                 !
 ! D1    D(4,1,2,3)           -114.5804         -DE/DX =    0.0                 !
 ! D2    D(4,1,2,5)            125.5816         -DE/DX =    0.0                 !
 ! D3    D(4,1,2,6)              6.6659         -DE/DX =    0.0                 !
 ! D4    D(7,1,2,3)             70.4931         -DE/DX =    0.0                 !
 ! D5    D(7,1,2,5)            -49.3449         -DE/DX =    0.0                 !
 ! D6    D(7,1,2,6)           -168.2607         -DE/DX =    0.0                 !
 ! D7    D(2,1,7,8)            106.4228         -DE/DX =    0.0                 !
 ! D8    D(2,1,7,9)           -141.7189         -DE/DX =    0.0                 !
 ! D9    D(2,1,7,10)           -11.2117         -DE/DX =    0.0                 !
 ! D10   D(4,1,7,8)            -68.6609         -DE/DX =    0.0                 !
 ! D11   D(4,1,7,9)             43.1974         -DE/DX =    0.0                 !
 ! D12   D(4,1,7,10)           173.7047         -DE/DX =    0.0                 !
 ! D13   D(1,2,3,13)            40.6758         -DE/DX =    0.0                 !
 ! D14   D(5,2,3,13)           157.2808         -DE/DX =    0.0                 !
 ! D15   D(6,2,3,13)           -79.1127         -DE/DX =    0.0                 !
 ! D16   D(2,3,13,11)          -30.7762         -DE/DX =    0.0                 !
 ! D17   D(12,11,13,3)         104.6416         -DE/DX =    0.0                 !
 --------------------------------------------------------------------------------
 GradGradGradGradGradGradGradGradGradGradGradGradGradGradGradGradGradGrad

 1\1\GINC-C50N05\Freq\RB3LYP\6-31++G(d,p)\C3H8O2\ROOT\26-Apr-2018\0\\#N
  Geom=AllCheck Guess=TCheck SCRF=Check GenChk RB3LYP/6-31++G(d,p) Freq
 \\OH-BACK-MID\\0,1\C,0.0209069881,-0.0466515825,-0.0356093674\C,0.0063
 596637,-0.0013606812,1.4499729681\O,1.3820804932,0.0194085336,1.759952
 6259\H,-0.3714088796,0.7870343555,-0.614026888\H,-0.510736404,-0.90312
 98041,1.82583546\H,-0.5360532856,0.8816244864,1.8163282625\C,0.4471536
 297,-1.2213778855,-0.7767661917\H,-0.5169687839,-1.6190001961,-1.15860
 68989\H,1.0204213853,-0.9765392422,-1.6758055352\H,0.9310708627,-1.985
 0631364,-0.1684892675\O,2.001547795,1.4763110744,-0.22758201\H,1.66627
 52893,2.3715110913,-0.0692881667\H,1.919985831,0.985285533,0.667020059
 7\\Version=EM64L-G09RevB.01\State=1-A\HF=-269.5224244\RMSD=4.649e-10\R
 MSF=2.110e-05\ZeroPoint=0.10651\Thermal=0.1133307\Dipole=-2.7885207,-0
 .210813,-1.7711132\DipoleDeriv=0.6944251,0.3203424,0.0971107,0.4541947
 ,1.1653622,0.2900255,0.2059784,0.2449188,1.3888459,0.7167493,0.029015,
 -0.4346906,-0.0956372,0.4402915,0.1090975,0.1203688,0.1047278,0.166779
 5,-1.4241197,-0.1914184,-0.1438235,-0.111885,-1.0076485,0.0926258,-0.2
 190716,0.1263534,-1.6539741,0.1243345,-0.0354505,0.0949989,0.0132098,0
 .0145174,0.0527648,-0.0121895,0.0161346,0.0871824,-0.0248541,-0.110895
 4,0.0562829,-0.1442384,-0.0956629,0.0510349,0.0972054,0.0415011,0.1137
 727,-0.1039082,0.1268001,0.081197,0.1785588,-0.1215976,-0.1171239,0.05
 485,-0.0599475,0.0514149,-0.2076093,-0.2959157,-0.1308376,-0.1975636,-
 0.4999994,-0.4766024,-0.1383053,-0.52428,-0.6191414,0.104332,0.131349,
 0.0904315,-0.0510397,0.0981673,-0.0756036,-0.0464664,0.0201925,0.21816
 7,0.1662247,0.0935103,0.1844928,-0.0333127,0.0747977,-0.015319,0.07979
 23,0.1032042,0.1335879,0.1206387,0.113013,0.0166867,0.0540991,0.056571
 8,0.0364411,-0.0446433,0.0695281,0.0298114,-1.0562086,-0.4332746,0.162
 7142,-0.4482292,-1.2114714,0.4125333,0.1553381,0.4269085,-1.021198,0.3
 681959,0.0315209,0.059233,0.092577,0.3382659,-0.0298899,0.0594074,-0.0
 751338,0.364955,0.5217999,0.2214038,-0.133796,0.2892664,0.7484061,-0.3
 299841,-0.3122643,-0.4941077,0.7397968\Polar=76.0364028,11.149206,76.5
 269656,7.3494549,3.446062,89.1421122\PG=C01 [X(C3H8O2)]\NImag=1\\0.272
 48398,-0.17625669,0.53747831,0.00236936,-0.03223525,0.53208972,-0.0391
 4000,0.01628967,0.05768643,0.53680409,0.01610672,-0.08913137,-0.010437
 18,-0.03460348,0.56755779,0.02746766,0.00107512,-0.22270380,-0.0443780
 1,0.03175922,0.47002244,-0.03595130,-0.00593730,-0.02914915,-0.3549085
 2,-0.00908944,-0.04768599,0.45304550,-0.00786369,-0.00123454,0.0039676
 5,-0.00023828,-0.06251089,-0.00948051,0.01270916,0.06392544,-0.0226230
 8,0.00222718,0.00380219,-0.09385305,-0.02077405,-0.06254429,0.08447198
 ,-0.00653721,0.07560976,-0.09330524,0.08694357,-0.05273013,0.02337562,
 0.00711272,-0.01135394,0.00528014,0.00076467,0.01145121,0.06801699,0.0
 8393568,-0.22702696,0.11895061,0.00645200,0.00823110,-0.00879532,0.001
 73010,0.00089708,0.00407860,-0.09508662,0.23480842,-0.06138088,0.12030
 577,-0.14473189,-0.00281751,0.02200498,-0.00548669,-0.00309723,-0.0011
 2539,-0.00121499,0.05776562,-0.12427700,0.14229735,-0.00083329,-0.0004
 7231,0.00286376,-0.07225061,-0.07527717,0.03416005,-0.03704044,-0.0283
 1362,0.00964381,-0.00255418,-0.00080665,-0.00031804,0.10386321,-0.0000
 9167,-0.00122285,0.00274604,-0.07578913,-0.21190299,0.06678515,-0.0070
 3222,0.00730823,-0.00005856,-0.00188310,0.00029625,0.00018651,0.094313
 35,0.22550669,0.01060912,0.02985405,-0.01613459,0.04561531,0.07292705,
 -0.08647543,-0.00502198,-0.01067744,0.01457211,-0.00252562,-0.00187238
 ,-0.00444392,-0.04095538,-0.07820922,0.08461959,0.00188696,-0.00155857
 ,-0.00180630,-0.09388979,0.09017308,0.04056901,-0.03494279,0.02455568,
 0.00680521,-0.00078784,-0.00065082,-0.00030230,0.00743457,-0.00945581,
 -0.00444581,0.11928600,-0.00136970,-0.00035727,0.00405530,0.08819710,-
 0.22095139,-0.07358300,0.00728531,0.00947600,0.00373015,-0.00036348,0.
 00067620,-0.00021363,0.00967890,-0.02072321,-0.00990309,-0.10394261,0.
 23077605,0.01295437,-0.03184069,-0.01698734,0.03357102,-0.06592200,-0.
 08031530,-0.00459734,0.00935083,0.00878379,0.00042659,0.00047952,0.001
 52807,-0.00367945,0.00977868,0.00613689,-0.04028738,0.07614532,0.08586
 245,-0.08875569,0.07709365,0.04842922,0.00011078,0.01235860,-0.0019580
 0,0.00732975,-0.00376020,-0.00542675,0.00505241,0.01152998,0.00908743,
 0.00121271,-0.00068899,-0.00298186,0.00158701,0.00046941,0.00163096,0.
 50681274,0.07289796,-0.20735892,-0.05591444,-0.00559188,0.00954137,-0.
 00759500,0.00335139,-0.00295287,-0.00567573,0.00516895,-0.01438939,-0.
 01470606,-0.00035214,0.00045926,-0.00112430,0.00068901,0.00113826,0.00
 310000,-0.07412699,0.53481435,0.03706762,-0.05406929,-0.12268655,0.003
 09111,-0.02568597,-0.01161224,-0.00288417,-0.00129231,-0.00708383,-0.0
 0297462,0.01511755,0.01198402,-0.00034720,-0.00156286,0.00128649,-0.00
 008832,-0.00072063,-0.00444655,-0.01785948,-0.06173741,0.55846949,-0.0
 0074899,-0.00615400,-0.00614706,-0.00040713,-0.00283648,0.00211030,-0.
 00021983,0.00032765,0.00114371,0.00132039,-0.00029070,-0.00035991,0.00
 023861,0.00061626,0.00066884,-0.00016918,0.00011868,-0.00029717,-0.213
 55055,-0.06757024,-0.07190113,0.23773304,-0.02277717,-0.00990504,-0.00
 638795,-0.00114444,0.00039193,-0.00152224,0.00151238,0.00031090,-0.000
 71927,0.00293574,0.00167290,0.00111140,0.00033177,-0.00029198,-0.00018
 329,0.00017489,-0.00001141,0.00012711,-0.08081144,-0.07614656,-0.03531
 214,0.08775949,0.07852081,-0.01472224,-0.01090934,-0.01130176,0.001591
 64,0.00125295,-0.00168279,0.00164896,-0.00135311,0.00034830,0.00007265
 ,-0.00010462,0.00048115,0.00018101,0.00016562,-0.00041561,0.00017451,0
 .00012036,0.00012246,-0.08213252,-0.03082742,-0.05817950,0.08396856,0.
 03739382,0.06941633,-0.00602155,-0.00732777,-0.00023559,0.00130853,0.0
 0045718,-0.00161398,0.00170823,0.00051524,0.00213562,0.00019513,-0.000
 25184,-0.00014692,-0.00003341,-0.00010431,-0.00019793,-0.00014220,0.00
 003844,0.00012822,-0.11560351,-0.02197095,0.12404702,-0.01570968,-0.00
 480689,0.02042832,0.12520436,0.01539549,0.00786850,-0.02611036,0.00111
 864,-0.00517363,0.00146513,-0.00248145,-0.00001426,-0.00104821,-0.0014
 4018,0.00065462,0.00059229,0.00004881,0.00045145,0.00061063,0.00005684
 ,-0.00022052,-0.00134925,-0.02533608,-0.06067289,0.05835932,-0.0077683
 6,-0.00202918,0.01018134,0.03267735,0.06195574,0.00640649,-0.00252362,
 -0.01958802,0.00458058,-0.00269151,0.00037768,0.00008006,0.00038236,0.
 00206780,-0.00185749,-0.00074310,0.00072217,-0.00007655,0.00017585,0.0
 0034049,-0.00047692,-0.00002694,-0.00097460,0.12022505,0.05990320,-0.2
 2379874,-0.00587103,-0.00107026,0.00681887,-0.13159992,-0.05607660,0.2
 4399591,-0.00525711,0.00218272,-0.00641692,-0.00162158,-0.00126809,-0.
 00014020,0.00005349,-0.00011090,-0.00047720,0.00391280,0.00157854,0.00
 103917,0.00000241,-0.00014984,0.00052444,-0.00010837,-0.00006156,0.000
 04785,-0.10221903,0.09105226,-0.06588427,-0.00981679,0.01731568,-0.011
 83827,0.00905863,-0.01233982,0.00790235,0.10514439,0.01267895,-0.02218
 064,0.01508665,-0.00120014,0.00046616,0.00169891,-0.00111999,0.0009834
 9,-0.00014209,0.00292849,-0.00158751,-0.00322110,0.00003626,0.00005658
 ,-0.00023846,0.00006292,0.00013701,0.00018794,0.08903985,-0.17990804,0
 .11043364,-0.00538656,0.00901266,-0.00663317,0.00143568,-0.00296910,0.
 00134915,-0.09865910,0.19579942,0.00995548,-0.01366417,0.01474625,-0.0
 0119941,-0.00014876,-0.00002765,0.00026237,-0.00097088,-0.00077755,0.0
 0023248,-0.00319800,-0.00167024,0.00013608,0.00055109,0.00015418,0.000
 10965,0.00020924,0.00031289,-0.06893836,0.11489046,-0.14326113,-0.0030
 1593,0.00674052,-0.00575843,-0.01283896,0.01387580,-0.01025548,0.07540
 830,-0.11843656,0.14653146,0.00078016,0.02190956,-0.00858190,0.0091059
 4,0.00155288,-0.00092406,0.00408263,-0.00912277,0.01588428,-0.00896919
 ,-0.00795344,0.00094899,-0.00000051,-0.00013059,-0.00049210,-0.0005468
 1,0.00013409,-0.00001721,-0.00179669,-0.00352759,-0.00268769,0.0016603
 6,-0.00028565,0.00060085,0.00053178,-0.00001194,0.00062279,0.00092964,
 0.00014555,-0.00020573,0.08306355,0.01212402,0.01352579,-0.00615934,0.
 00989910,-0.00143447,0.00355723,-0.01665928,-0.01836918,0.03624277,-0.
 00415440,-0.00284163,-0.00036162,-0.00197662,-0.00054705,-0.00057919,-
 0.00117083,0.00061814,-0.00006460,-0.00632844,-0.00498804,-0.00506567,
 0.00148486,-0.00172777,0.00063364,-0.00000181,-0.00036049,0.00146584,0
 .00048314,0.00019961,0.00004052,-0.16236137,0.54050072,-0.00178756,0.0
 0157117,-0.00650430,-0.00406069,0.00445507,-0.00603732,0.02302297,0.03
 628113,-0.03018926,-0.00251238,-0.00173394,0.00076768,0.00314151,0.000
 24636,0.00006118,0.00086381,-0.00066586,0.00002542,-0.00074249,-0.0005
 0428,0.00021396,0.00006567,-0.00034378,0.00026804,-0.00046006,0.000175
 79,0.00041098,0.00013019,-0.00003471,0.00006427,-0.07146126,-0.0505073
 2,0.31977186,0.00401135,0.00089765,-0.00131455,0.00067877,0.00023703,-
 0.00002639,-0.00009978,-0.00063400,0.00270996,-0.00069721,-0.00006810,
 -0.00039019,-0.00001130,-0.00003039,-0.00007724,-0.00013227,0.00013638
 ,-0.00003299,-0.00153838,-0.00100696,-0.00095341,0.00016449,-0.0005023
 5,0.00007586,-0.00015321,-0.00005124,0.00030963,0.00001737,0.00003601,
 0.00003427,-0.06710081,0.16729805,0.02806304,0.06484804,-0.00083566,-0
 .00329193,0.00042992,-0.00030514,0.00050354,0.00009378,-0.00048265,0.0
 0080978,0.00048493,0.00023312,0.00013531,-0.00045632,-0.00004293,-0.00
 002138,-0.00013413,-0.00007210,-0.00008333,-0.00001114,-0.00010649,0.0
 0041474,0.00020729,-0.00012195,0.00005785,0.00000177,-0.00007189,0.000
 08549,-0.00002151,-0.00009556,0.00003802,0.00005367,0.15767174,-0.4361
 0871,-0.05373779,-0.16336227,0.45364947,0.00080962,0.00005436,-0.00036
 065,0.00005334,0.00026792,-0.00066546,0.00236619,0.00071641,-0.0027314
 9,-0.00021182,-0.00011693,-0.00007909,0.00012876,0.00005240,0.00004322
 ,0.00001460,-0.00003734,-0.00000826,-0.00039424,-0.00024656,-0.0002305
 1,-0.00003450,-0.00013948,0.00005694,-0.00012815,-0.00004391,0.0001441
 1,-0.00000363,0.00000274,0.00001215,0.04137858,-0.09301091,-0.04828182
 ,-0.03002205,0.06203832,0.04303267,-0.00914927,-0.00761019,-0.00496717
 ,-0.00916612,-0.00492356,0.00377356,-0.00833706,0.01117106,-0.01186569
 ,-0.00083984,-0.00011814,-0.00002824,-0.00002778,0.00042643,-0.0007197
 9,0.00052471,-0.00032096,0.00015254,0.00135845,0.00098716,0.00137454,-
 0.00049475,0.00029798,-0.00004934,-0.00034311,0.00013193,-0.00024505,-
 0.00009586,0.00000208,0.00005977,-0.02174005,0.00136358,0.02573725,0.0
 0001293,0.00759178,-0.01395671,0.04829776,-0.00394426,0.00283692,-0.00
 799165,-0.00308402,0.00441286,-0.00545848,0.01621397,0.00137084,-0.011
 80852,-0.00315949,-0.00152638,0.00016018,0.00283235,0.00063099,-0.0004
 7023,0.00113832,-0.00047453,0.00001827,0.00066714,0.00004872,0.0013284
 7,-0.00017867,0.00014489,0.00007817,-0.00058844,0.00042427,-0.00012284
 ,0.00007253,-0.00004766,0.00005705,0.00197954,-0.08846692,0.06479817,-
 0.00294983,-0.01618885,0.03046298,-0.00899915,0.09683485,-0.00712595,-
 0.00984528,0.01036074,0.00011923,-0.00700774,0.00715084,-0.01941668,-0
 .01926154,-0.00064255,0.00421745,0.00221503,-0.00015363,-0.00487835,-0
 .00085704,0.00025540,-0.00112975,0.00089013,-0.00003993,0.00106105,0.0
 0043753,-0.00065492,-0.00033037,0.00030555,-0.00017401,0.00048233,-0.0
 0063198,-0.00026118,-0.00029182,-0.00005295,-0.00007072,0.02493445,0.1
 1380865,-0.23057069,0.00162406,-0.00894878,0.00906819,0.00073434,-0.07
 105156,0.20573246\\0.00001117,0.00000334,0.00000259,-0.00003973,0.0000
 1031,-0.00000749,-0.00001030,-0.00001813,0.00001028,0.00003272,0.00002
 150,-0.00001226,-0.00003827,0.00002378,-0.00001349,-0.00000094,0.00002
 357,-0.00001522,-0.00001480,0.00000509,0.00000047,-0.00001338,0.000022
 99,-0.00001350,0.00000654,-0.00001023,0.00000586,-0.00003714,-0.000007
 59,0.00000640,0.00002792,-0.00001512,-0.00000552,0.00005552,-0.0000223
 2,0.00001202,0.00002067,-0.00003718,0.00002986\\\@


 AND THIS OUR LIFE, EXEMPT FROM PUBLIC HAUNT,
 FINDS TONGUES IN TREES, BOOKS IN THE RUNNING BROOKS,
 SERMONS IN STONES, AND GOOD IN EVERYTHING.
 I WOULD NOT CHANGE IT. -- W. SHAKESPEARE
 AS YOU LIKE IT, ACT II, SCENE 1.
 Job cpu time:  0 days  0 hours 10 minutes 29.0 seconds.
 File lengths (MBytes):  RWF=   2256 Int=      0 D2E=      0 Chk=     32 Scr=     32
 Normal termination of Gaussian 09 at Thu Apr 26 15:39:56 2018.
