 Entering Gaussian System, Link 0=g09
 Input=H3O-mid.gjf
 Output=H3O-mid.log
 Initial command:
 /share/home/zxchen/g09/l1.exe /scratch/zxchen/Gau-31776.inp -scrdir=/scratch/zxchen/
 Entering Link 1 = /share/home/zxchen/g09/l1.exe PID=     31777.
  
 Copyright (c) 1988,1990,1992,1993,1995,1998,2003,2009,2010,
            Gaussian, Inc.  All Rights Reserved.
  
 This is part of the Gaussian(R) 09 program.  It is based on
 the Gaussian(R) 03 system (copyright 2003, Gaussian, Inc.),
 the Gaussian(R) 98 system (copyright 1998, Gaussian, Inc.),
 the Gaussian(R) 94 system (copyright 1995, Gaussian, Inc.),
 the Gaussian 92(TM) system (copyright 1992, Gaussian, Inc.),
 the Gaussian 90(TM) system (copyright 1990, Gaussian, Inc.),
 the Gaussian 88(TM) system (copyright 1988, Gaussian, Inc.),
 the Gaussian 86(TM) system (copyright 1986, Carnegie Mellon
 University), and the Gaussian 82(TM) system (copyright 1983,
 Carnegie Mellon University). Gaussian is a federally registered
 trademark of Gaussian, Inc.
  
 This software contains proprietary and confidential information,
 including trade secrets, belonging to Gaussian, Inc.
  
 This software is provided under written license and may be
 used, copied, transmitted, or stored only in accord with that
 written license.
  
 The following legend is applicable only to US Government
 contracts under FAR:
  
                    RESTRICTED RIGHTS LEGEND
  
 Use, reproduction and disclosure by the US Government is
 subject to restrictions as set forth in subparagraphs (a)
 and (c) of the Commercial Computer Software - Restricted
 Rights clause in FAR 52.227-19.
  
 Gaussian, Inc.
 340 Quinnipiac St., Bldg. 40, Wallingford CT 06492
  
  
 ---------------------------------------------------------------
 Warning -- This program may not be used in any manner that
 competes with the business of Gaussian, Inc. or will provide
 assistance to any competitor of Gaussian, Inc.  The licensee
 of this program is prohibited from giving any competitor of
 Gaussian, Inc. access to this program.  By using this program,
 the user acknowledges that Gaussian, Inc. is engaged in the
 business of creating and licensing software in the field of
 computational chemistry and represents and warrants to the
 licensee that it is not a competitor of Gaussian, Inc. and that
 it will not use this program in any manner prohibited above.
 ---------------------------------------------------------------
  

 Cite this work as:
 Gaussian 09, Revision B.01,
 M. J. Frisch, G. W. Trucks, H. B. Schlegel, G. E. Scuseria, 
 M. A. Robb, J. R. Cheeseman, G. Scalmani, V. Barone, B. Mennucci, 
 G. A. Petersson, H. Nakatsuji, M. Caricato, X. Li, H. P. Hratchian, 
 A. F. Izmaylov, J. Bloino, G. Zheng, J. L. Sonnenberg, M. Hada, 
 M. Ehara, K. Toyota, R. Fukuda, J. Hasegawa, M. Ishida, T. Nakajima, 
 Y. Honda, O. Kitao, H. Nakai, T. Vreven, J. A. Montgomery, Jr., 
 J. E. Peralta, F. Ogliaro, M. Bearpark, J. J. Heyd, E. Brothers, 
 K. N. Kudin, V. N. Staroverov, T. Keith, R. Kobayashi, J. Normand, 
 K. Raghavachari, A. Rendell, J. C. Burant, S. S. Iyengar, J. Tomasi, 
 M. Cossi, N. Rega, J. M. Millam, M. Klene, J. E. Knox, J. B. Cross, 
 V. Bakken, C. Adamo, J. Jaramillo, R. Gomperts, R. E. Stratmann, 
 O. Yazyev, A. J. Austin, R. Cammi, C. Pomelli, J. W. Ochterski, 
 R. L. Martin, K. Morokuma, V. G. Zakrzewski, G. A. Voth, 
 P. Salvador, J. J. Dannenberg, S. Dapprich, A. D. Daniels, 
 O. Farkas, J. B. Foresman, J. V. Ortiz, J. Cioslowski, 
 and D. J. Fox, Gaussian, Inc., Wallingford CT, 2010.
 
 ******************************************
 Gaussian 09:  EM64L-G09RevB.01 12-Aug-2010
                26-Apr-2018 
 ******************************************
 %chk=H3O-mid.chk
 %nprocshared=24
 Will use up to   24 processors via shared memory.
 ----------------------------------------------------------------------
 # scrf=(smd,solvent=water) opt=(ts,noeigen,calcfc) freq b3lyp/6-31++g(
 d,p)
 ----------------------------------------------------------------------
 1/5=1,10=4,11=1,14=-1,18=20,26=3,38=1/1,3;
 2/9=110,12=2,17=6,18=5,40=1/2;
 3/5=1,6=6,7=1111,11=2,16=1,25=1,30=1,70=32201,71=2,72=1,74=-5/1,2,3;
 4//1;
 5/5=2,38=5,53=1/2;
 8/6=4,10=90,11=11/1;
 11/6=1,8=1,9=11,15=111,16=1/1,2,10;
 10/6=1,7=6,13=1/2;
 6/7=2,8=2,9=2,10=2,28=1/1;
 7/10=1,18=20,25=1/1,2,3,16;
 1/5=1,10=4,11=1,14=-1,18=20/3(2);
 2/9=110/2;
 99//99;
 2/9=110/2;
 3/5=1,6=6,7=1111,11=2,16=1,25=1,30=1,70=32205,71=1,72=1,74=-5/1,2,3;
 4/5=5,16=3/1;
 5/5=2,38=5,53=1/2;
 7//1,2,3,16;
 1/5=1,11=1,14=-1,18=20/3(-5);
 2/9=110/2;
 6/7=2,8=2,9=2,10=2,19=2,28=1/1;
 99/9=1/99;
 -------------
 H3O-BACK-MIDM
 -------------
 Symbolic Z-matrix:
 Charge =  1 Multiplicity = 1
 C
 C                    1    B1
 H                    1    B2       2    A1
 H                    2    B3       1    A2       3    D1       0
 H                    2    B4       1    A3       3    D2       0
 C                    1    B5       2    A4       5    D3       0
 H                    6    B6       1    A5       2    D4       0
 H                    6    B7       1    A6       2    D5       0
 H                    6    B8       1    A7       2    D6       0
 O                    2    B9       1    A8       6    D7       0
 H                    10   B10      2    A9       1    D8       0
 O                    1    B11      2    A10      10   D9       0
 H                    12   B12      1    A11      2    D10      0
 H                    12   B13      1    A12      2    D11      0
       Variables:
  B1                    1.47047                  
  B2                    1.08742                  
  B3                    1.08832                  
  B4                    1.08811                  
  B5                    1.47109                  
  B6                    1.09656                  
  B7                    1.09821                  
  B8                    1.09068                  
  B9                    1.45946                  
  B10                   0.97354                  
  B11                   2.34824                  
  B12                   0.96829                  
  B13                   0.96833                  
  A1                  116.36837                  
  A2                  116.74192                  
  A3                  117.05599                  
  A4                  124.19281                  
  A5                  108.11828                  
  A6                  109.11842                  
  A7                  113.36941                  
  A8                   83.23699                  
  A9                  111.1666                   
  A10                  94.14974                  
  A11                 126.14026                  
  A12                 125.5523                   
  D1                  168.09779                  
  D2                   29.92499                  
  D3                 -162.79679                  
  D4                  138.54914                  
  D5                 -107.24821                  
  D6                   15.47663                  
  D7                   83.58317                  
  D8                  101.59368                  
  D9                 -170.59164                  
  D10                 105.68816                  
  D11                 -92.94884                  
 

 GradGradGradGradGradGradGradGradGradGradGradGradGradGradGradGradGradGrad
 Berny optimization.
 Initialization pass.
                           ----------------------------
                           !    Initial Parameters    !
                           ! (Angstroms and Degrees)  !
 --------------------------                            --------------------------
 ! Name  Definition              Value          Derivative Info.                !
 --------------------------------------------------------------------------------
 ! R1    R(1,2)                  1.4705         calculate D2E/DX2 analytically  !
 ! R2    R(1,3)                  1.0874         calculate D2E/DX2 analytically  !
 ! R3    R(1,6)                  1.4711         calculate D2E/DX2 analytically  !
 ! R4    R(1,12)                 2.3482         calculate D2E/DX2 analytically  !
 ! R5    R(1,13)                 3.0222         calculate D2E/DX2 analytically  !
 ! R6    R(1,14)                 3.016          calculate D2E/DX2 analytically  !
 ! R7    R(2,4)                  1.0883         calculate D2E/DX2 analytically  !
 ! R8    R(2,5)                  1.0881         calculate D2E/DX2 analytically  !
 ! R9    R(2,10)                 1.4595         calculate D2E/DX2 analytically  !
 ! R10   R(2,12)                 2.8594         calculate D2E/DX2 analytically  !
 ! R11   R(3,12)                 2.5071         calculate D2E/DX2 analytically  !
 ! R12   R(5,12)                 2.9172         calculate D2E/DX2 analytically  !
 ! R13   R(6,7)                  1.0966         calculate D2E/DX2 analytically  !
 ! R14   R(6,8)                  1.0982         calculate D2E/DX2 analytically  !
 ! R15   R(6,9)                  1.0907         calculate D2E/DX2 analytically  !
 ! R16   R(6,12)                 2.9919         calculate D2E/DX2 analytically  !
 ! R17   R(7,12)                 2.7501         calculate D2E/DX2 analytically  !
 ! R18   R(10,11)                0.9735         calculate D2E/DX2 analytically  !
 ! R19   R(12,13)                0.9683         calculate D2E/DX2 analytically  !
 ! R20   R(12,14)                0.9683         calculate D2E/DX2 analytically  !
 ! A1    A(2,1,3)              116.3684         calculate D2E/DX2 analytically  !
 ! A2    A(2,1,6)              124.1928         calculate D2E/DX2 analytically  !
 ! A3    A(2,1,13)              98.0293         calculate D2E/DX2 analytically  !
 ! A4    A(2,1,14)              94.7756         calculate D2E/DX2 analytically  !
 ! A5    A(3,1,6)              118.2488         calculate D2E/DX2 analytically  !
 ! A6    A(3,1,13)              70.6474         calculate D2E/DX2 analytically  !
 ! A7    A(3,1,14)              98.6128         calculate D2E/DX2 analytically  !
 ! A8    A(6,1,13)             109.6279         calculate D2E/DX2 analytically  !
 ! A9    A(6,1,14)              87.8543         calculate D2E/DX2 analytically  !
 ! A10   A(13,1,14)             29.7305         calculate D2E/DX2 analytically  !
 ! A11   A(1,2,4)              116.7419         calculate D2E/DX2 analytically  !
 ! A12   A(1,2,5)              117.056          calculate D2E/DX2 analytically  !
 ! A13   A(1,2,10)              83.237          calculate D2E/DX2 analytically  !
 ! A14   A(4,2,5)              112.8275         calculate D2E/DX2 analytically  !
 ! A15   A(4,2,10)             109.2738         calculate D2E/DX2 analytically  !
 ! A16   A(4,2,12)              98.4098         calculate D2E/DX2 analytically  !
 ! A17   A(5,2,10)             114.0732         calculate D2E/DX2 analytically  !
 ! A18   A(10,2,12)            137.297          calculate D2E/DX2 analytically  !
 ! A19   A(1,6,7)              108.1183         calculate D2E/DX2 analytically  !
 ! A20   A(1,6,8)              109.1184         calculate D2E/DX2 analytically  !
 ! A21   A(1,6,9)              113.3694         calculate D2E/DX2 analytically  !
 ! A22   A(7,6,8)              105.4439         calculate D2E/DX2 analytically  !
 ! A23   A(7,6,9)              110.6552         calculate D2E/DX2 analytically  !
 ! A24   A(8,6,9)              109.8142         calculate D2E/DX2 analytically  !
 ! A25   A(8,6,12)             147.2704         calculate D2E/DX2 analytically  !
 ! A26   A(9,6,12)             102.4519         calculate D2E/DX2 analytically  !
 ! A27   A(2,10,11)            111.1666         calculate D2E/DX2 analytically  !
 ! A28   A(1,12,5)              47.6902         calculate D2E/DX2 analytically  !
 ! A29   A(1,12,7)              47.6102         calculate D2E/DX2 analytically  !
 ! A30   A(2,12,3)              47.4445         calculate D2E/DX2 analytically  !
 ! A31   A(2,12,6)              52.6936         calculate D2E/DX2 analytically  !
 ! A32   A(2,12,7)              74.0871         calculate D2E/DX2 analytically  !
 ! A33   A(2,12,13)            128.1908         calculate D2E/DX2 analytically  !
 ! A34   A(2,12,14)            121.3729         calculate D2E/DX2 analytically  !
 ! A35   A(3,12,5)              54.2348         calculate D2E/DX2 analytically  !
 ! A36   A(3,12,6)              46.2386         calculate D2E/DX2 analytically  !
 ! A37   A(3,12,7)              56.5873         calculate D2E/DX2 analytically  !
 ! A38   A(3,12,13)            100.8638         calculate D2E/DX2 analytically  !
 ! A39   A(3,12,14)            146.2642         calculate D2E/DX2 analytically  !
 ! A40   A(5,12,6)              73.3787         calculate D2E/DX2 analytically  !
 ! A41   A(5,12,7)              94.3185         calculate D2E/DX2 analytically  !
 ! A42   A(5,12,13)            109.2724         calculate D2E/DX2 analytically  !
 ! A43   A(5,12,14)            130.2671         calculate D2E/DX2 analytically  !
 ! A44   A(6,12,13)            139.3418         calculate D2E/DX2 analytically  !
 ! A45   A(6,12,14)            100.3261         calculate D2E/DX2 analytically  !
 ! A46   A(7,12,13)            127.5469         calculate D2E/DX2 analytically  !
 ! A47   A(7,12,14)             90.5893         calculate D2E/DX2 analytically  !
 ! A48   A(13,12,14)           106.2401         calculate D2E/DX2 analytically  !
 ! D1    D(3,1,2,4)            168.0978         calculate D2E/DX2 analytically  !
 ! D2    D(3,1,2,5)             29.925          calculate D2E/DX2 analytically  !
 ! D3    D(3,1,2,10)           -83.6951         calculate D2E/DX2 analytically  !
 ! D4    D(6,1,2,4)            -24.624          calculate D2E/DX2 analytically  !
 ! D5    D(6,1,2,5)           -162.7968         calculate D2E/DX2 analytically  !
 ! D6    D(6,1,2,10)            83.5832         calculate D2E/DX2 analytically  !
 ! D7    D(13,1,2,4)            95.7715         calculate D2E/DX2 analytically  !
 ! D8    D(13,1,2,5)           -42.4013         calculate D2E/DX2 analytically  !
 ! D9    D(13,1,2,10)         -156.0213         calculate D2E/DX2 analytically  !
 ! D10   D(14,1,2,4)            66.0257         calculate D2E/DX2 analytically  !
 ! D11   D(14,1,2,5)           -72.1471         calculate D2E/DX2 analytically  !
 ! D12   D(14,1,2,10)          174.2328         calculate D2E/DX2 analytically  !
 ! D13   D(2,1,6,7)            138.5491         calculate D2E/DX2 analytically  !
 ! D14   D(2,1,6,8)           -107.2482         calculate D2E/DX2 analytically  !
 ! D15   D(2,1,6,9)             15.4766         calculate D2E/DX2 analytically  !
 ! D16   D(3,1,6,7)            -54.3938         calculate D2E/DX2 analytically  !
 ! D17   D(3,1,6,8)             59.8088         calculate D2E/DX2 analytically  !
 ! D18   D(3,1,6,9)           -177.4663         calculate D2E/DX2 analytically  !
 ! D19   D(13,1,6,7)            23.6142         calculate D2E/DX2 analytically  !
 ! D20   D(13,1,6,8)           137.8169         calculate D2E/DX2 analytically  !
 ! D21   D(13,1,6,9)           -99.4583         calculate D2E/DX2 analytically  !
 ! D22   D(14,1,6,7)            44.2326         calculate D2E/DX2 analytically  !
 ! D23   D(14,1,6,8)           158.4353         calculate D2E/DX2 analytically  !
 ! D24   D(14,1,6,9)           -78.8399         calculate D2E/DX2 analytically  !
 ! D25   D(1,2,10,11)          101.5937         calculate D2E/DX2 analytically  !
 ! D26   D(4,2,10,11)         -142.3942         calculate D2E/DX2 analytically  !
 ! D27   D(5,2,10,11)          -15.0667         calculate D2E/DX2 analytically  !
 ! D28   D(12,2,10,11)          90.2071         calculate D2E/DX2 analytically  !
 ! D29   D(4,2,12,3)          -148.647          calculate D2E/DX2 analytically  !
 ! D30   D(4,2,12,6)           -87.391          calculate D2E/DX2 analytically  !
 ! D31   D(4,2,12,7)           -89.6838         calculate D2E/DX2 analytically  !
 ! D32   D(4,2,12,13)          144.7253         calculate D2E/DX2 analytically  !
 ! D33   D(4,2,12,14)           -8.9671         calculate D2E/DX2 analytically  !
 ! D34   D(10,2,12,3)          -17.9399         calculate D2E/DX2 analytically  !
 ! D35   D(10,2,12,6)           43.3161         calculate D2E/DX2 analytically  !
 ! D36   D(10,2,12,7)           41.0233         calculate D2E/DX2 analytically  !
 ! D37   D(10,2,12,13)         -84.5676         calculate D2E/DX2 analytically  !
 ! D38   D(10,2,12,14)         121.7401         calculate D2E/DX2 analytically  !
 ! D39   D(8,6,12,2)           -91.5929         calculate D2E/DX2 analytically  !
 ! D40   D(8,6,12,3)           -28.1802         calculate D2E/DX2 analytically  !
 ! D41   D(8,6,12,5)           -84.2171         calculate D2E/DX2 analytically  !
 ! D42   D(8,6,12,13)           16.2166         calculate D2E/DX2 analytically  !
 ! D43   D(8,6,12,14)          146.6405         calculate D2E/DX2 analytically  !
 ! D44   D(9,6,12,2)            78.6737         calculate D2E/DX2 analytically  !
 ! D45   D(9,6,12,3)           142.0864         calculate D2E/DX2 analytically  !
 ! D46   D(9,6,12,5)            86.0496         calculate D2E/DX2 analytically  !
 ! D47   D(9,6,12,13)         -173.5168         calculate D2E/DX2 analytically  !
 ! D48   D(9,6,12,14)          -43.0928         calculate D2E/DX2 analytically  !
 --------------------------------------------------------------------------------
 Trust Radius=3.00D-01 FncErr=1.00D-07 GrdErr=1.00D-06
 Number of steps in this run=    100 maximum allowed number of steps=    100.
 Search for a saddle point of order  1.
 GradGradGradGradGradGradGradGradGradGradGradGradGradGradGradGradGradGrad

                          Input orientation:                          
 ---------------------------------------------------------------------
 Center     Atomic      Atomic             Coordinates (Angstroms)
 Number     Number       Type             X           Y           Z
 ---------------------------------------------------------------------
      1          6           0        0.000000    0.000000    0.000000
      2          6           0        0.000000    0.000000    1.470465
      3          1           0        0.974285    0.000000   -0.482969
      4          1           0       -0.951019    0.200450    1.960179
      5          1           0        0.839841    0.483418    1.965406
      6          6           0       -1.186944   -0.267964   -0.826724
      7          1           0       -1.185802    0.439564   -1.664490
      8          1           0       -1.090267   -1.262047   -1.283350
      9          1           0       -2.123785   -0.205573   -0.271731
     10          8           0        0.159163   -1.440538    1.298595
     11          1           0        1.083812   -1.711195    1.438381
     12          8           0        0.126796    2.338644   -0.169926
     13          1           0        0.908539    2.851340   -0.422142
     14          1           0       -0.628579    2.939039   -0.251091
 ---------------------------------------------------------------------
                    Distance matrix (angstroms):
                    1          2          3          4          5
     1  C    0.000000
     2  C    1.470465   0.000000
     3  H    1.087424   2.182920   0.000000
     4  H    2.187903   1.088318   3.117042   0.000000
     5  H    2.191312   1.088114   2.499262   1.813086   0.000000
     6  C    1.471092   2.599561   2.204741   2.835824   3.531065
     7  H    2.090424   3.380428   2.501037   3.640127   4.157079
     8  H    2.104384   3.219463   2.548675   3.560725   4.162497
     9  H    2.150944   2.754627   3.112060   2.553753   3.776582
    10  O    1.945979   1.459460   2.431778   2.088789   2.146990
    11  H    2.484306   2.025801   2.575223   2.840281   2.270155
    12  O    2.348235   2.859409   2.507088   3.204826   2.917180
    13  H    3.022215   3.540839   2.852746   4.020028   3.363355
    14  H    3.015976   3.463642   3.355725   3.534622   3.619281
                    6          7          8          9         10
     6  C    0.000000
     7  H    1.096562   0.000000
     8  H    1.098206   1.746389   0.000000
     9  H    1.090679   1.798830   1.790997   0.000000
    10  O    2.775593   3.758137   2.873913   3.033631   0.000000
    11  H    3.517094   4.405079   3.512289   3.934471   0.973536
    12  O    2.991939   2.750117   3.960547   3.398311   4.054605
    13  H    3.779522   3.427296   4.653693   4.308402   4.684305
    14  H    3.305751   2.924991   4.350614   3.482047   4.711981
                   11         12         13         14
    11  H    0.000000
    12  O    4.461360   0.000000
    13  H    4.930415   0.968293   0.000000
    14  H    5.235578   0.968325   1.549090   0.000000
 Stoichiometry    C3H9O2(1+)
 Framework group  C1[X(C3H9O2)]
 Deg. of freedom    36
 Full point group                 C1      NOp   1
 Largest Abelian subgroup         C1      NOp   1
 Largest concise Abelian subgroup C1      NOp   1
                         Standard orientation:                         
 ---------------------------------------------------------------------
 Center     Atomic      Atomic             Coordinates (Angstroms)
 Number     Number       Type             X           Y           Z
 ---------------------------------------------------------------------
      1          6           0       -0.068348    0.226258   -0.348972
      2          6           0       -0.675195   -0.871701    0.418160
      3          1           0        0.104727    0.038856   -1.406051
      4          1           0       -0.669176   -0.773598    1.502031
      5          1           0       -0.461934   -1.885315    0.084845
      6          6           0        0.060829    1.606342    0.143769
      7          1           0        1.050721    1.980006   -0.144220
      8          1           0       -0.658416    2.245898   -0.385108
      9          1           0       -0.086173    1.696750    1.220708
     10          8           0       -1.920124   -0.321383   -0.108456
     11          1           0       -2.249143   -0.849754   -0.857016
     12          8           0        2.127636   -0.548602   -0.046558
     13          1           0        2.677463   -0.982051   -0.715441
     14          1           0        2.728121   -0.276301    0.662613
 ---------------------------------------------------------------------
 Rotational constants (GHZ):      6.5877811      2.9624284      2.2562599
 Standard basis: 6-31++G(d,p) (6D, 7F)
 There are   149 symmetry adapted basis functions of A   symmetry.
 Integral buffers will be    131072 words long.
 Raffenetti 2 integral format.
 Two-electron integral symmetry is turned on.
   149 basis functions,   232 primitive gaussians,   149 cartesian basis functions
    21 alpha electrons       21 beta electrons
       nuclear repulsion energy       191.9951929856 Hartrees.
 NAtoms=   14 NActive=   14 NUniq=   14 SFac= 1.00D+00 NAtFMM=   50 NAOKFM=F Big=F
 ------------------------------------------------------------------------------
 Polarizable Continuum Model (PCM)
 =================================
 Model                : PCM.
 Atomic radii         : SMD-Coulomb.
 Polarization charges : Total charges.
 Charge compensation  : None.
 Solution method      : Matrix inversion.
 Cavity type          : VdW (van der Waals Surface) (Alpha=1.000).
 Cavity algorithm     : GePol (No added spheres)
                        Default sphere list used, NSphG=   14.
                        Lebedev-Laikov grids with approx.  5.0 points / Ang**2.
                        Smoothing algorithm: Karplus/York (Gamma=1.0000).
                        Polarization charges: spherical gaussians, with
                                              point-specific exponents (IZeta= 3).
                        Self-potential: point-specific (ISelfS= 7).
                        Self-field    : sphere-specific E.n sum rule (ISelfD= 2).
 1st derivatives      : Analytical E(r).r(x)/FMM algorithm (CHGder, D1EAlg=3).
                        Cavity 1st derivative terms included.
 2nd derivatives      : Analytical E(r).r(xy)/FMM algorithm (CHGder, D2EAlg=3).
                        Cavity 2nd derivative terms included.
 Solvent              : Water, Eps=  78.355300 Eps(inf)=   1.777849
 ------------------------------------------------------------------------------
 Spheres list:
 ISph  on   Nord    Re0     Alpha      Xe            Ye            Ze
    1   C      1    1.850   1.000     -0.068348      0.226258     -0.348972
    2   C      2    1.850   1.000     -0.675195     -0.871701      0.418160
    3   H      3    1.200   1.000      0.104727      0.038856     -1.406051
    4   H      4    1.200   1.000     -0.669176     -0.773598      1.502031
    5   H      5    1.200   1.000     -0.461934     -1.885315      0.084845
    6   C      6    1.850   1.000      0.060829      1.606342      0.143769
    7   H      7    1.200   1.000      1.050721      1.980006     -0.144220
    8   H      8    1.200   1.000     -0.658416      2.245898     -0.385108
    9   H      9    1.200   1.000     -0.086173      1.696750      1.220708
   10   O     10    1.520   1.000     -1.920124     -0.321383     -0.108456
   11   H     11    1.200   1.000     -2.249143     -0.849754     -0.857016
   12   O     12    1.520   1.000      2.127636     -0.548602     -0.046558
   13   H     13    1.200   1.000      2.677463     -0.982051     -0.715441
   14   H     14    1.200   1.000      2.728121     -0.276301      0.662613
 ------------------------------------------------------------------------------
 ------------------------------------------------------------------------------
 Atomic radii for non-electrostatic terms: SMD-CDS.
 ------------------------------------------------------------------------------
 Nuclear repulsion after PCM non-electrostatic terms =      192.0015413324 Hartrees.
 One-electron integrals computed using PRISM.
 PrsmSu:  requested number of processors reduced to:  10 ShMem   1 Linda.
 NBasis=   149 RedAO= T  NBF=   149
 NBsUse=   149 1.00D-06 NBFU=   149
 Harris functional with IExCor=  402 diagonalized for initial guess.
 ExpMin= 3.60D-02 ExpMax= 5.48D+03 ExpMxC= 8.25D+02 IAcc=3 IRadAn=         0 AccDes= 0.00D+00
 HarFok:  IExCor=  402 AccDes= 0.00D+00 IRadAn=         0 IDoV= 1
 ScaDFX=  1.000000  1.000000  1.000000  1.000000
 FoFCou: FMM=F IPFlag=           0 FMFlag=      100000 FMFlg1=           0
         NFxFlg=           0 DoJE=T BraDBF=F KetDBF=T FulRan=T
         Omega=  0.000000  0.000000  1.000000  0.000000  0.000000 ICntrl=     500 IOpCl=  0
         NMat0=    1 NMatS0=    1 NMatT0=    0 NMatD0=    1 NMtDS0=    0 NMtDT0=    0
         I1Cent=           4 NGrid=           0.
 Petite list used in FoFCou.
 Initial guess orbital symmetries:
       Occupied  (A) (A) (A) (A) (A) (A) (A) (A) (A) (A) (A) (A)
                 (A) (A) (A) (A) (A) (A) (A) (A) (A)
       Virtual   (A) (A) (A) (A) (A) (A) (A) (A) (A) (A) (A) (A)
                 (A) (A) (A) (A) (A) (A) (A) (A) (A) (A) (A) (A)
                 (A) (A) (A) (A) (A) (A) (A) (A) (A) (A) (A) (A)
                 (A) (A) (A) (A) (A) (A) (A) (A) (A) (A) (A) (A)
                 (A) (A) (A) (A) (A) (A) (A) (A) (A) (A) (A) (A)
                 (A) (A) (A) (A) (A) (A) (A) (A) (A) (A) (A) (A)
                 (A) (A) (A) (A) (A) (A) (A) (A) (A) (A) (A) (A)
                 (A) (A) (A) (A) (A) (A) (A) (A) (A) (A) (A) (A)
                 (A) (A) (A) (A) (A) (A) (A) (A) (A) (A) (A) (A)
                 (A) (A) (A) (A) (A) (A) (A) (A) (A) (A) (A) (A)
                 (A) (A) (A) (A) (A) (A) (A) (A)
 The electronic state of the initial guess is 1-A.
 Requested convergence on RMS density matrix=1.00D-08 within 128 cycles.
 Requested convergence on MAX density matrix=1.00D-06.
 Requested convergence on             energy=1.00D-06.
 No special actions if energy rises.
 CoulSu:  requested number of processors reduced to:  14 ShMem   1 Linda.
 CoulSu:  requested number of processors reduced to:  14 ShMem   1 Linda.
 CoulSu:  requested number of processors reduced to:  15 ShMem   1 Linda.
 CoulSu:  requested number of processors reduced to:  15 ShMem   1 Linda.
 CoulSu:  requested number of processors reduced to:  15 ShMem   1 Linda.
 CoulSu:  requested number of processors reduced to:  15 ShMem   1 Linda.
 CoulSu:  requested number of processors reduced to:  15 ShMem   1 Linda.
 CoulSu:  requested number of processors reduced to:  15 ShMem   1 Linda.
 CoulSu:  requested number of processors reduced to:  15 ShMem   1 Linda.
 CoulSu:  requested number of processors reduced to:  15 ShMem   1 Linda.
 CoulSu:  requested number of processors reduced to:  15 ShMem   1 Linda.
 CoulSu:  requested number of processors reduced to:  15 ShMem   1 Linda.
 CoulSu:  requested number of processors reduced to:  15 ShMem   1 Linda.
 CoulSu:  requested number of processors reduced to:  15 ShMem   1 Linda.
 CoulSu:  requested number of processors reduced to:  15 ShMem   1 Linda.
 Error on total polarization charges =  0.03566
 SCF Done:  E(RB3LYP) =  -269.993832916     A.U. after   12 cycles
             Convg  =    0.4565D-08             -V/T =  2.0101
 SMD-CDS (non-electrostatic) energy       (kcal/mol) =       3.98
 (included in total energy above)
 Range of M.O.s used for correlation:     1   149
 NBasis=   149 NAE=    21 NBE=    21 NFC=     0 NFV=     0
 NROrb=    149 NOA=    21 NOB=    21 NVA=   128 NVB=   128

 **** Warning!!: The largest alpha MO coefficient is  0.46565431D+02

 PrsmSu:  requested number of processors reduced to:  10 ShMem   1 Linda.
 PrsmSu:  requested number of processors reduced to:  17 ShMem   1 Linda.
 Symmetrizing basis deriv contribution to polar:
 IMax=3 JMax=2 DiffMx= 0.00D+00
 G2DrvN: will do     3 centers at a time, making    5 passes doing MaxLOS=2.
 Estimated number of processors is:   15
 Calling FoFCou, ICntrl=  3107 FMM=F I1Cent=   0 AccDes= 0.00D+00.
 CoulSu:  requested number of processors reduced to:  15 ShMem   1 Linda.
 Calling FoFCou, ICntrl=  3107 FMM=F I1Cent=   0 AccDes= 0.00D+00.
 CoulSu:  requested number of processors reduced to:  15 ShMem   1 Linda.
 Calling FoFCou, ICntrl=  3107 FMM=F I1Cent=   0 AccDes= 0.00D+00.
 CoulSu:  requested number of processors reduced to:  15 ShMem   1 Linda.
 Calling FoFCou, ICntrl=  3107 FMM=F I1Cent=   0 AccDes= 0.00D+00.
 CoulSu:  requested number of processors reduced to:  15 ShMem   1 Linda.
 Calling FoFCou, ICntrl=  3107 FMM=F I1Cent=   0 AccDes= 0.00D+00.
 CoulSu:  requested number of processors reduced to:  15 ShMem   1 Linda.
 FoFDir/FoFCou used for L=0 through L=2.
 G2PCM: DoFxE=T DoFxN=T DoGrad=T DoPD/DQ/DG=FFF NFrqRd=   0 IEInf=0 DoCFld=F IF1Alg=4.
 CoulSu:  requested number of processors reduced to:  22 ShMem   1 Linda.
 CoulSu:  requested number of processors reduced to:  22 ShMem   1 Linda.
 CoulSu:  requested number of processors reduced to:  23 ShMem   1 Linda.
 CoulSu:  requested number of processors reduced to:  15 ShMem   1 Linda.
 CoulSu:  requested number of processors reduced to:  10 ShMem   1 Linda.
 CoulSu:  requested number of processors reduced to:  22 ShMem   1 Linda.
 CoulSu:  requested number of processors reduced to:  22 ShMem   1 Linda.
 CoulSu:  requested number of processors reduced to:  15 ShMem   1 Linda.
 CoulSu:  requested number of processors reduced to:  23 ShMem   1 Linda.
 CoulSu:  requested number of processors reduced to:  23 ShMem   1 Linda.
 CoulSu:  requested number of processors reduced to:  11 ShMem   1 Linda.
 CoulSu:  requested number of processors reduced to:  15 ShMem   1 Linda.
 CoulSu:  requested number of processors reduced to:  22 ShMem   1 Linda.
 CoulSu:  requested number of processors reduced to:  22 ShMem   1 Linda.
 CoulSu:  requested number of processors reduced to:  22 ShMem   1 Linda.
 CoulSu:  requested number of processors reduced to:  22 ShMem   1 Linda.
 CoulSu:  requested number of processors reduced to:  22 ShMem   1 Linda.
 CoulSu:  requested number of processors reduced to:  22 ShMem   1 Linda.
 CoulSu:  requested number of processors reduced to:  22 ShMem   1 Linda.
 CoulSu:  requested number of processors reduced to:  22 ShMem   1 Linda.
 CoulSu:  requested number of processors reduced to:  22 ShMem   1 Linda.
 CoulSu:  requested number of processors reduced to:  22 ShMem   1 Linda.
 CoulSu:  requested number of processors reduced to:  22 ShMem   1 Linda.
 CoulSu:  requested number of processors reduced to:  22 ShMem   1 Linda.
 CoulSu:  requested number of processors reduced to:  22 ShMem   1 Linda.
 CoulSu:  requested number of processors reduced to:  22 ShMem   1 Linda.
 CoulSu:  requested number of processors reduced to:  22 ShMem   1 Linda.
 CoulSu:  requested number of processors reduced to:  22 ShMem   1 Linda.
 CoulSu:  requested number of processors reduced to:  22 ShMem   1 Linda.
 CoulSu:  requested number of processors reduced to:  22 ShMem   1 Linda.
 CoulSu:  requested number of processors reduced to:  22 ShMem   1 Linda.
 CoulSu:  requested number of processors reduced to:  22 ShMem   1 Linda.
 CoulSu:  requested number of processors reduced to:  22 ShMem   1 Linda.
 CoulSu:  requested number of processors reduced to:  22 ShMem   1 Linda.
 CoulSu:  requested number of processors reduced to:  22 ShMem   1 Linda.
 CoulSu:  requested number of processors reduced to:  22 ShMem   1 Linda.
 CoulSu:  requested number of processors reduced to:  22 ShMem   1 Linda.
 CoulSu:  requested number of processors reduced to:  22 ShMem   1 Linda.
 CoulSu:  requested number of processors reduced to:  22 ShMem   1 Linda.
 CoulSu:  requested number of processors reduced to:  22 ShMem   1 Linda.
 CoulSu:  requested number of processors reduced to:  15 ShMem   1 Linda.
 CoulSu:  requested number of processors reduced to:  22 ShMem   1 Linda.
 CoulSu:  requested number of processors reduced to:  22 ShMem   1 Linda.
 CoulSu:  requested number of processors reduced to:  15 ShMem   1 Linda.
 CoulSu:  requested number of processors reduced to:  10 ShMem   1 Linda.
 CoulSu:  requested number of processors reduced to:  10 ShMem   1 Linda.
 CoulSu:  requested number of processors reduced to:  22 ShMem   1 Linda.
 CoulSu:  requested number of processors reduced to:  22 ShMem   1 Linda.
 CoulSu:  requested number of processors reduced to:  22 ShMem   1 Linda.
 CoulSu:  requested number of processors reduced to:  22 ShMem   1 Linda.
 CoulSu:  requested number of processors reduced to:  15 ShMem   1 Linda.
 CoulSu:  requested number of processors reduced to:  10 ShMem   1 Linda.
 CoulSu:  requested number of processors reduced to:  10 ShMem   1 Linda.
 CoulSu:  requested number of processors reduced to:  22 ShMem   1 Linda.
 CoulSu:  requested number of processors reduced to:  22 ShMem   1 Linda.
 End of G2Drv Frequency-dependent properties file   721 does not exist.
 End of G2Drv Frequency-dependent properties file   722 does not exist.
          IDoAtm=11111111111111
 NEqPCM:  Using equilibrium solvation (IEInf=0, Eps=  78.3553, EpsInf=   1.7778)
          Differentiating once with respect to nuclear coordinates.
 PrRfSu:  requested number of processors reduced to:  16 ShMem   1 Linda.
 CalDSu:  requested number of processors reduced to:  21 ShMem   1 Linda.
 PrRfSu:  requested number of processors reduced to:  16 ShMem   1 Linda.
 CalDSu:  requested number of processors reduced to:  21 ShMem   1 Linda.
          There are    45 degrees of freedom in the 1st order CPHF.  IDoFFX=5.
     39 vectors produced by pass  0 Test12= 5.97D-11 2.22D-07 XBig12= 1.16D-01 1.77D-01.
 AX will form    20 AO Fock derivatives at one time.
 PrRfSu:  requested number of processors reduced to:  16 ShMem   1 Linda.
 CalDSu:  requested number of processors reduced to:  22 ShMem   1 Linda.
 PrRfSu:  requested number of processors reduced to:  16 ShMem   1 Linda.
 CalDSu:  requested number of processors reduced to:  22 ShMem   1 Linda.
     39 vectors produced by pass  1 Test12= 5.97D-11 2.22D-07 XBig12= 1.34D-02 2.75D-02.
 PrRfSu:  requested number of processors reduced to:  16 ShMem   1 Linda.
 CalDSu:  requested number of processors reduced to:  22 ShMem   1 Linda.
 PrRfSu:  requested number of processors reduced to:  16 ShMem   1 Linda.
 CalDSu:  requested number of processors reduced to:  22 ShMem   1 Linda.
     39 vectors produced by pass  2 Test12= 5.97D-11 2.22D-07 XBig12= 9.72D-05 2.15D-03.
 PrRfSu:  requested number of processors reduced to:  16 ShMem   1 Linda.
 CalDSu:  requested number of processors reduced to:  22 ShMem   1 Linda.
 PrRfSu:  requested number of processors reduced to:  16 ShMem   1 Linda.
 CalDSu:  requested number of processors reduced to:  22 ShMem   1 Linda.
     39 vectors produced by pass  3 Test12= 5.97D-11 2.22D-07 XBig12= 2.99D-07 7.39D-05.
 PrRfSu:  requested number of processors reduced to:  16 ShMem   1 Linda.
 CalDSu:  requested number of processors reduced to:  22 ShMem   1 Linda.
 PrRfSu:  requested number of processors reduced to:  16 ShMem   1 Linda.
 CalDSu:  requested number of processors reduced to:  22 ShMem   1 Linda.
     12 vectors produced by pass  4 Test12= 5.97D-11 2.22D-07 XBig12= 3.62D-10 2.44D-06.
 PrRfSu:  requested number of processors reduced to:  17 ShMem   1 Linda.
 CalDSu:  requested number of processors reduced to:  23 ShMem   1 Linda.
 Inverted reduced A of dimension   168 with in-core refinement.
 End of Minotr Frequency-dependent properties file   721 does not exist.
 End of Minotr Frequency-dependent properties file   722 does not exist.

 **********************************************************************

            Population analysis using the SCF density.

 **********************************************************************

 Orbital symmetries:
       Occupied  (A) (A) (A) (A) (A) (A) (A) (A) (A) (A) (A) (A)
                 (A) (A) (A) (A) (A) (A) (A) (A) (A)
       Virtual   (A) (A) (A) (A) (A) (A) (A) (A) (A) (A) (A) (A)
                 (A) (A) (A) (A) (A) (A) (A) (A) (A) (A) (A) (A)
                 (A) (A) (A) (A) (A) (A) (A) (A) (A) (A) (A) (A)
                 (A) (A) (A) (A) (A) (A) (A) (A) (A) (A) (A) (A)
                 (A) (A) (A) (A) (A) (A) (A) (A) (A) (A) (A) (A)
                 (A) (A) (A) (A) (A) (A) (A) (A) (A) (A) (A) (A)
                 (A) (A) (A) (A) (A) (A) (A) (A) (A) (A) (A) (A)
                 (A) (A) (A) (A) (A) (A) (A) (A) (A) (A) (A) (A)
                 (A) (A) (A) (A) (A) (A) (A) (A) (A) (A) (A) (A)
                 (A) (A) (A) (A) (A) (A) (A) (A) (A) (A) (A) (A)
                 (A) (A) (A) (A) (A) (A) (A) (A)
 The electronic state is 1-A.
 Alpha  occ. eigenvalues --  -19.22871 -19.17950 -10.31604 -10.27239 -10.20632
 Alpha  occ. eigenvalues --   -1.08657  -1.02783  -0.82686  -0.72919  -0.62003
 Alpha  occ. eigenvalues --   -0.56469  -0.54450  -0.49799  -0.48592  -0.44456
 Alpha  occ. eigenvalues --   -0.42891  -0.40248  -0.39870  -0.38502  -0.34150
 Alpha  occ. eigenvalues --   -0.33477
 Alpha virt. eigenvalues --   -0.09389  -0.01040   0.00544   0.01605   0.02003
 Alpha virt. eigenvalues --    0.04099   0.04845   0.05358   0.05597   0.05863
 Alpha virt. eigenvalues --    0.08339   0.09014   0.10849   0.11723   0.12784
 Alpha virt. eigenvalues --    0.13121   0.13727   0.14266   0.14721   0.15165
 Alpha virt. eigenvalues --    0.16148   0.17007   0.18068   0.18845   0.19251
 Alpha virt. eigenvalues --    0.20405   0.21856   0.22727   0.23048   0.23566
 Alpha virt. eigenvalues --    0.24782   0.27528   0.28269   0.30030   0.30704
 Alpha virt. eigenvalues --    0.31304   0.32665   0.34837   0.35829   0.39795
 Alpha virt. eigenvalues --    0.41145   0.42517   0.59928   0.65504   0.68312
 Alpha virt. eigenvalues --    0.71400   0.73436   0.75894   0.77960   0.78330
 Alpha virt. eigenvalues --    0.85042   0.92449   0.94961   0.97682   0.98500
 Alpha virt. eigenvalues --    0.99226   1.00450   1.04026   1.06541   1.09330
 Alpha virt. eigenvalues --    1.12914   1.14765   1.18083   1.19206   1.20168
 Alpha virt. eigenvalues --    1.23850   1.25932   1.29869   1.31466   1.40202
 Alpha virt. eigenvalues --    1.41081   1.49424   1.50847   1.52470   1.59360
 Alpha virt. eigenvalues --    1.60845   1.64931   1.71000   1.75518   1.78926
 Alpha virt. eigenvalues --    1.85853   1.88399   1.92290   1.98776   2.02820
 Alpha virt. eigenvalues --    2.05069   2.09129   2.11330   2.13637   2.20311
 Alpha virt. eigenvalues --    2.23948   2.27493   2.29750   2.30741   2.35370
 Alpha virt. eigenvalues --    2.37170   2.42163   2.45971   2.50937   2.53971
 Alpha virt. eigenvalues --    2.55760   2.59573   2.63716   2.64419   2.65222
 Alpha virt. eigenvalues --    2.67148   2.72207   2.81756   2.84198   2.84840
 Alpha virt. eigenvalues --    2.86523   2.92792   2.97505   3.04082   3.24236
 Alpha virt. eigenvalues --    3.28923   3.38372   3.42607   3.43838   3.44459
 Alpha virt. eigenvalues --    3.47705   3.52269   3.56271   4.23488   4.29652
 Alpha virt. eigenvalues --    4.38442   4.49751   4.63117
          Condensed to atoms (all electrons):
              1          2          3          4          5          6
     1  C    6.585856  -0.251519   0.345203  -0.081064  -0.048119  -0.416432
     2  C   -0.251519   5.343393   0.008889   0.441831   0.378651   0.140328
     3  H    0.345203   0.008889   0.447095   0.003915  -0.016660  -0.036140
     4  H   -0.081064   0.441831   0.003915   0.459697  -0.030062  -0.003765
     5  H   -0.048119   0.378651  -0.016660  -0.030062   0.487472   0.023170
     6  C   -0.416432   0.140328  -0.036140  -0.003765   0.023170   5.604270
     7  H   -0.119147   0.021964  -0.012827  -0.003108   0.001762   0.458041
     8  H   -0.029470  -0.002238  -0.001326   0.001658  -0.000026   0.389291
     9  H   -0.075150   0.010717   0.004580   0.003730  -0.000920   0.418739
    10  O   -0.232784   0.196972  -0.021649  -0.035900  -0.012442   0.076668
    11  H    0.001665  -0.010371   0.003287   0.006457  -0.013324  -0.010353
    12  O   -0.087200  -0.031031  -0.015835   0.000063   0.010831   0.049551
    13  H    0.011362  -0.003563   0.002180   0.000082  -0.001017  -0.005036
    14  H    0.021984  -0.006744   0.002217  -0.000178  -0.000851  -0.007825
              7          8          9         10         11         12
     1  C   -0.119147  -0.029470  -0.075150  -0.232784   0.001665  -0.087200
     2  C    0.021964  -0.002238   0.010717   0.196972  -0.010371  -0.031031
     3  H   -0.012827  -0.001326   0.004580  -0.021649   0.003287  -0.015835
     4  H   -0.003108   0.001658   0.003730  -0.035900   0.006457   0.000063
     5  H    0.001762  -0.000026  -0.000920  -0.012442  -0.013324   0.010831
     6  C    0.458041   0.389291   0.418739   0.076668  -0.010353   0.049551
     7  H    0.455573  -0.015401  -0.022669   0.005114  -0.000114   0.002934
     8  H   -0.015401   0.449755  -0.020690  -0.004851  -0.000112   0.004345
     9  H   -0.022669  -0.020690   0.463498  -0.003854   0.000558  -0.003585
    10  O    0.005114  -0.004851  -0.003854   8.208368   0.258042   0.015062
    11  H   -0.000114  -0.000112   0.000558   0.258042   0.296440   0.000310
    12  O    0.002934   0.004345  -0.003585   0.015062   0.000310   8.254816
    13  H    0.000083  -0.000226   0.000324   0.000294   0.000079   0.275605
    14  H   -0.000816  -0.000202   0.000749  -0.000599  -0.000217   0.280443
             13         14
     1  C    0.011362   0.021984
     2  C   -0.003563  -0.006744
     3  H    0.002180   0.002217
     4  H    0.000082  -0.000178
     5  H   -0.001017  -0.000851
     6  C   -0.005036  -0.007825
     7  H    0.000083  -0.000816
     8  H   -0.000226  -0.000202
     9  H    0.000324   0.000749
    10  O    0.000294  -0.000599
    11  H    0.000079  -0.000217
    12  O    0.275605   0.280443
    13  H    0.303755  -0.017021
    14  H   -0.017021   0.309414
 Mulliken atomic charges:
              1
     1  C    0.374813
     2  C   -0.237278
     3  H    0.287072
     4  H    0.236645
     5  H    0.221535
     6  C   -0.680507
     7  H    0.228609
     8  H    0.229491
     9  H    0.223974
    10  O   -0.448443
    11  H    0.467654
    12  O   -0.756309
    13  H    0.433099
    14  H    0.419644
 Sum of Mulliken atomic charges =   1.00000
 Mulliken charges with hydrogens summed into heavy atoms:
              1
     1  C    0.661885
     2  C    0.220901
     6  C    0.001568
    10  O    0.019211
    12  O    0.096435
 Sum of Mulliken charges with hydrogens summed into heavy atoms =   1.00000
 APT atomic charges:
              1
     1  C    0.096795
     2  C   -0.629901
     3  H    0.491012
     4  H    0.456641
     5  H    0.486502
     6  C   -1.391239
     7  H    0.491240
     8  H    0.525164
     9  H    0.420458
    10  O   -0.816212
    11  H    0.788700
    12  O   -1.527671
    13  H    0.843115
    14  H    0.765397
 Sum of APT charges=   1.00000
 APT Atomic charges with hydrogens summed into heavy atoms:
              1
     1  C    0.587807
     2  C    0.313242
     3  H    0.000000
     4  H    0.000000
     5  H    0.000000
     6  C    0.045623
     7  H    0.000000
     8  H    0.000000
     9  H    0.000000
    10  O   -0.027512
    11  H    0.000000
    12  O    0.080841
    13  H    0.000000
    14  H    0.000000
 Sum of APT charges=   1.00000
 Electronic spatial extent (au):  <R**2>=            550.4394
 Charge=              1.0000 electrons
 Dipole moment (field-independent basis, Debye):
    X=              2.1064    Y=             -1.4285    Z=             -1.8586  Tot=              3.1515
 Quadrupole moment (field-independent basis, Debye-Ang):
   XX=            -14.8487   YY=            -22.7029   ZZ=            -23.9923
   XY=              1.8317   XZ=              3.2469   YZ=              2.3170
 Traceless Quadrupole moment (field-independent basis, Debye-Ang):
   XX=              5.6660   YY=             -2.1882   ZZ=             -3.4777
   XY=              1.8317   XZ=              3.2469   YZ=              2.3170
 Octapole moment (field-independent basis, Debye-Ang**2):
  XXX=             41.7627  YYY=             -2.5533  ZZZ=             -2.7001  XYY=             -1.7923
  XXY=            -17.7600  XXZ=             -9.6642  XZZ=              1.4997  YZZ=             -4.3831
  YYZ=             -3.9848  XYZ=              0.6032
 Hexadecapole moment (field-independent basis, Debye-Ang**3):
 XXXX=           -224.0838 YYYY=           -188.7869 ZZZZ=            -52.8637 XXXY=            -13.2402
 XXXZ=             27.6429 YYYX=              1.9424 YYYZ=              2.9640 ZZZX=              3.2691
 ZZZY=              4.2699 XXYY=            -79.8923 XXZZ=            -50.3038 YYZZ=            -42.1985
 XXYZ=             17.7064 YYXZ=             -0.3153 ZZXY=             -0.3962
 N-N= 1.920015413324D+02 E-N=-1.005633271686D+03  KE= 2.673005402147D+02
  Exact polarizability:   0.000   0.000   0.000   0.000   0.000   0.000
 Approx polarizability:  77.036   3.911  60.465   0.412   0.284  54.792
 PrsmSu:  requested number of processors reduced to:  10 ShMem   1 Linda.
 PrsmSu:  requested number of processors reduced to:  10 ShMem   1 Linda.
 D2PCM: PCM CHGder 2nd derivatives, FixD1E=F FixD2E=F DoIter=F DoCFld=F I1PDM=0
 CoulSu:  requested number of processors reduced to:  10 ShMem   1 Linda.
 CoulSu:  requested number of processors reduced to:  10 ShMem   1 Linda.
 CoulSu:  requested number of processors reduced to:  10 ShMem   1 Linda.
 CoulSu:  requested number of processors reduced to:  15 ShMem   1 Linda.
 CoulSu:  requested number of processors reduced to:  22 ShMem   1 Linda.
 CoulSu:  requested number of processors reduced to:  10 ShMem   1 Linda.
 CoulSu:  requested number of processors reduced to:  10 ShMem   1 Linda.
 CoulSu:  requested number of processors reduced to:  10 ShMem   1 Linda.
 CoulSu:  requested number of processors reduced to:  22 ShMem   1 Linda.
 CoulSu:  requested number of processors reduced to:  10 ShMem   1 Linda.
 CoulSu:  requested number of processors reduced to:  10 ShMem   1 Linda.
 CoulSu:  requested number of processors reduced to:  10 ShMem   1 Linda.
 CoulSu:  requested number of processors reduced to:  10 ShMem   1 Linda.
 CoulSu:  requested number of processors reduced to:  10 ShMem   1 Linda.
 CoulSu:  requested number of processors reduced to:  10 ShMem   1 Linda.
 CoulSu:  requested number of processors reduced to:  10 ShMem   1 Linda.
 CoulSu:  requested number of processors reduced to:  10 ShMem   1 Linda.
 CoulSu:  requested number of processors reduced to:  10 ShMem   1 Linda.
 CoulSu:  requested number of processors reduced to:  22 ShMem   1 Linda.
 CoulSu:  requested number of processors reduced to:  22 ShMem   1 Linda.
 CoulSu:  requested number of processors reduced to:  21 ShMem   1 Linda.
 CoulSu:  requested number of processors reduced to:  21 ShMem   1 Linda.
 CoulSu:  requested number of processors reduced to:  22 ShMem   1 Linda.
 CoulSu:  requested number of processors reduced to:  10 ShMem   1 Linda.
 Calling FoFJK, ICntrl=    100147 FMM=F ISym2X=0 I1Cent= 0 IOpClX= 0 NMat=1 NMatS=1 NMatT=0.
 CoulSu:  requested number of processors reduced to:  10 ShMem   1 Linda.
 CalDSu:  requested number of processors reduced to:  23 ShMem   1 Linda.
 ***** Axes restored to original set *****
 -------------------------------------------------------------------
 Center     Atomic                   Forces (Hartrees/Bohr)
 Number     Number              X              Y              Z
 -------------------------------------------------------------------
      1        6           0.000970724    0.001556583   -0.000155319
      2        6          -0.001127662    0.000863838   -0.002002596
      3        1          -0.000347911   -0.000578208    0.001124043
      4        1          -0.000267060    0.000110987   -0.001170850
      5        1           0.000714175   -0.002265879   -0.001106588
      6        6          -0.000550726    0.000104062    0.000276994
      7        1           0.000227784   -0.000209173    0.000527322
      8        1           0.000970939    0.000594634    0.000106574
      9        1           0.000335500    0.000595796    0.000673170
     10        8          -0.002842847   -0.003021008    0.003173213
     11        1           0.002300020    0.003002508   -0.001776232
     12        8          -0.000152270   -0.000276461    0.001933257
     13        1           0.000202200   -0.000275969   -0.000656794
     14        1          -0.000432865   -0.000201711   -0.000946195
 -------------------------------------------------------------------
 Cartesian Forces:  Max     0.003173213 RMS     0.001315650

 GradGradGradGradGradGradGradGradGradGradGradGradGradGradGradGradGradGrad
 Berny optimization.
 Internal  Forces:  Max     0.005737756 RMS     0.000710849
 Search for a saddle point.
 Step number   1 out of a maximum of  100
 All quantities printed in internal units (Hartrees-Bohrs-Radians)
 Swaping is turned off.
 Second derivative matrix not updated -- analytic derivatives used.
 ITU=  0
     Eigenvalues ---   -0.00605  -0.00133   0.00016   0.00037   0.00080
     Eigenvalues ---    0.00261   0.00314   0.00601   0.00678   0.00977
     Eigenvalues ---    0.01168   0.01956   0.02190   0.02681   0.03020
     Eigenvalues ---    0.03707   0.04007   0.05329   0.05745   0.06287
     Eigenvalues ---    0.07609   0.09530   0.11611   0.14810   0.21991
     Eigenvalues ---    0.24617   0.28570   0.30517   0.32075   0.32561
     Eigenvalues ---    0.33672   0.35204   0.35857   0.36149   0.38125
     Eigenvalues ---    0.51017
 Eigenvectors required to have negative eigenvalues:
                          R5        R4        R6        A13       R16
   1                    0.37899   0.35304   0.34649  -0.26307   0.24317
                          D4        D2        R11       D13       A18
   1                    0.21293  -0.20818   0.20152  -0.18428  -0.16014
 RFO step:  Lambda0=2.455084896D-04 Lambda=-1.84556436D-03.
 Linear search not attempted -- option 19 set.
 Maximum step size (   0.300) exceeded in Quadratic search.
    -- Step size scaled by   0.606
 Iteration  1 RMS(Cart)=  0.02362883 RMS(Int)=  0.00304687
 Iteration  2 RMS(Cart)=  0.00144574 RMS(Int)=  0.00248721
 Iteration  3 RMS(Cart)=  0.00000283 RMS(Int)=  0.00248721
 Iteration  4 RMS(Cart)=  0.00000001 RMS(Int)=  0.00248721
 Variable       Old X    -DE/DX   Delta X   Delta X   Delta X     New X
                                 (Linear)    (Quad)   (Total)
    R1        2.77878  -0.00132   0.00000  -0.01128  -0.01083   2.76794
    R2        2.05493  -0.00061   0.00000  -0.00159  -0.00130   2.05363
    R3        2.77996  -0.00094   0.00000  -0.00009   0.00158   2.78154
    R4        4.43752  -0.00008   0.00000   0.08452   0.08524   4.52276
    R5        5.71116   0.00006   0.00000   0.04610   0.04475   5.75591
    R6        5.69937  -0.00005   0.00000   0.04905   0.04530   5.74467
    R7        2.05662  -0.00026   0.00000  -0.00175  -0.00175   2.05487
    R8        2.05624  -0.00059   0.00000  -0.00250  -0.00251   2.05373
    R9        2.75798  -0.00022   0.00000   0.01138   0.01138   2.76936
   R10        5.40350  -0.00027   0.00000  -0.00827  -0.00763   5.39587
   R11        4.73771   0.00011   0.00000   0.09167   0.09223   4.82994
   R12        5.51267  -0.00042   0.00000  -0.00051  -0.00009   5.51258
   R13        2.07220  -0.00037   0.00000  -0.00069  -0.00066   2.07154
   R14        2.07531  -0.00049   0.00000  -0.00218  -0.00218   2.07313
   R15        2.06108   0.00008   0.00000   0.00006   0.00006   2.06114
   R16        5.65395  -0.00094   0.00000   0.06457   0.06459   5.71854
   R17        5.19697  -0.00057   0.00000   0.02895   0.02887   5.22583
   R18        1.83972   0.00109   0.00000   0.00322   0.00322   1.84293
   R19        1.82981   0.00027   0.00000   0.00051   0.00266   1.83247
   R20        1.82987   0.00015   0.00000   0.00058   0.00464   1.83451
    A1        2.03101  -0.00033   0.00000  -0.00067  -0.00166   2.02935
    A2        2.16757  -0.00032   0.00000   0.00025   0.00100   2.16857
    A3        1.71093   0.00030   0.00000   0.00082   0.00019   1.71112
    A4        1.65415   0.00029   0.00000   0.01238   0.01134   1.66549
    A5        2.06383   0.00059   0.00000   0.00706   0.00688   2.07072
    A6        1.23303   0.00013   0.00000  -0.00177  -0.00060   1.23243
    A7        1.72112   0.00026   0.00000  -0.01056  -0.01163   1.70949
    A8        1.91337  -0.00008   0.00000  -0.02636  -0.02761   1.88576
    A9        1.53335  -0.00023   0.00000  -0.03195  -0.03030   1.50305
   A10        0.51890   0.00007   0.00000  -0.00558  -0.00833   0.51056
   A11        2.03753  -0.00019   0.00000   0.00437   0.00403   2.04156
   A12        2.04301  -0.00065   0.00000   0.00702   0.00615   2.04916
   A13        1.45276   0.00102   0.00000  -0.03032  -0.03021   1.42255
   A14        1.96921   0.00092   0.00000   0.01614   0.01641   1.98562
   A15        1.90719  -0.00019   0.00000   0.00067   0.00078   1.90797
   A16        1.71757  -0.00033   0.00000  -0.00485  -0.00517   1.71240
   A17        1.99095  -0.00107   0.00000  -0.01290  -0.01306   1.97789
   A18        2.39628   0.00102   0.00000   0.00283   0.00311   2.39939
   A19        1.88702   0.00023   0.00000  -0.00576  -0.00528   1.88174
   A20        1.90448  -0.00054   0.00000   0.00217   0.00172   1.90620
   A21        1.97867  -0.00027   0.00000  -0.00488  -0.00486   1.97381
   A22        1.84034  -0.00017   0.00000   0.00442   0.00464   1.84499
   A23        1.93130   0.00002   0.00000  -0.00316  -0.00357   1.92773
   A24        1.91662   0.00072   0.00000   0.00775   0.00783   1.92445
   A25        2.57035  -0.00036   0.00000   0.00611   0.00568   2.57603
   A26        1.78812  -0.00039   0.00000  -0.01191  -0.01168   1.77644
   A27        1.94022  -0.00574   0.00000  -0.01986  -0.01986   1.92037
   A28        0.83235  -0.00050   0.00000  -0.00412  -0.00450   0.82785
   A29        0.83096  -0.00010   0.00000  -0.01037  -0.00985   0.82111
   A30        0.82806  -0.00043   0.00000  -0.00697  -0.00735   0.82072
   A31        0.91968  -0.00037   0.00000  -0.00761  -0.00714   0.91254
   A32        1.29306  -0.00038   0.00000  -0.01227  -0.01184   1.28122
   A33        2.23735   0.00010   0.00000   0.03927   0.03580   2.27315
   A34        2.11836   0.00012   0.00000   0.05917   0.05307   2.17142
   A35        0.94658  -0.00079   0.00000  -0.01008  -0.01072   0.93586
   A36        0.80702  -0.00002   0.00000  -0.01031  -0.00987   0.79715
   A37        0.98763   0.00005   0.00000  -0.01027  -0.00976   0.97787
   A38        1.76041   0.00004   0.00000  -0.02999  -0.02995   1.73045
   A39        2.55279  -0.00014   0.00000  -0.08502  -0.09054   2.46225
   A40        1.28070  -0.00053   0.00000  -0.00966  -0.00932   1.27138
   A41        1.64617  -0.00056   0.00000  -0.01448  -0.01420   1.63197
   A42        1.90716   0.00008   0.00000   0.05610   0.05438   1.96154
   A43        2.27359   0.00055   0.00000   0.11323   0.10724   2.38083
   A44        2.43197  -0.00004   0.00000  -0.08102  -0.08200   2.34997
   A45        1.75102  -0.00012   0.00000  -0.06086  -0.06042   1.69060
   A46        2.22611   0.00000   0.00000  -0.09331  -0.09314   2.13297
   A47        1.58108  -0.00019   0.00000  -0.09785  -0.09495   1.48614
   A48        1.85424   0.00005   0.00000  -0.00657  -0.02620   1.82804
    D1        2.93386   0.00005   0.00000   0.00340   0.00318   2.93704
    D2        0.52229  -0.00043   0.00000  -0.03977  -0.04008   0.48221
    D3       -1.46075   0.00033   0.00000  -0.01057  -0.01063  -1.47138
    D4       -0.42977  -0.00022   0.00000   0.03927   0.03967  -0.39010
    D5       -2.84134  -0.00069   0.00000  -0.00390  -0.00359  -2.84493
    D6        1.45880   0.00006   0.00000   0.02530   0.02586   1.48466
    D7        1.67153  -0.00025   0.00000   0.00498   0.00374   1.67527
    D8       -0.74004  -0.00072   0.00000  -0.03819  -0.03951  -0.77955
    D9       -2.72309   0.00004   0.00000  -0.00899  -0.01006  -2.73315
   D10        1.15237  -0.00033   0.00000   0.00898   0.01073   1.16310
   D11       -1.25920  -0.00081   0.00000  -0.03419  -0.03252  -1.29173
   D12        3.04094  -0.00005   0.00000  -0.00498  -0.00307   3.03786
   D13        2.41814   0.00032   0.00000  -0.04827  -0.04879   2.36935
   D14       -1.87183  -0.00004   0.00000  -0.04498  -0.04523  -1.91706
   D15        0.27012   0.00031   0.00000  -0.03675  -0.03723   0.23289
   D16       -0.94935  -0.00006   0.00000  -0.01270  -0.01252  -0.96187
   D17        1.04386  -0.00042   0.00000  -0.00941  -0.00896   1.03490
   D18       -3.09737  -0.00007   0.00000  -0.00118  -0.00096  -3.09834
   D19        0.41215   0.00020   0.00000  -0.02547  -0.02488   0.38727
   D20        2.40536  -0.00016   0.00000  -0.02219  -0.02132   2.38404
   D21       -1.73587   0.00019   0.00000  -0.01396  -0.01332  -1.74920
   D22        0.77200   0.00013   0.00000  -0.04156  -0.04196   0.73005
   D23        2.76522  -0.00022   0.00000  -0.03828  -0.03840   2.72682
   D24       -1.37602   0.00012   0.00000  -0.03005  -0.03040  -1.40642
   D25        1.77314  -0.00116   0.00000  -0.05620  -0.05620   1.71694
   D26       -2.48525  -0.00104   0.00000  -0.06157  -0.06170  -2.54695
   D27       -0.26296  -0.00080   0.00000  -0.04938  -0.04923  -0.31220
   D28        1.57441  -0.00138   0.00000  -0.05684  -0.05685   1.51756
   D29       -2.59438  -0.00015   0.00000   0.00588   0.00528  -2.58910
   D30       -1.52526   0.00021   0.00000  -0.00128  -0.00143  -1.52669
   D31       -1.56528   0.00017   0.00000   0.00127   0.00092  -1.56435
   D32        2.52593   0.00044   0.00000   0.12266   0.12546   2.65139
   D33       -0.15650  -0.00036   0.00000  -0.15062  -0.15336  -0.30987
   D34       -0.31311   0.00013   0.00000   0.00278   0.00217  -0.31094
   D35        0.75601   0.00049   0.00000  -0.00439  -0.00454   0.75147
   D36        0.71599   0.00045   0.00000  -0.00184  -0.00219   0.71380
   D37       -1.47598   0.00073   0.00000   0.11955   0.12235  -1.35364
   D38        2.12477  -0.00008   0.00000  -0.15372  -0.15648   1.96829
   D39       -1.59860   0.00022   0.00000  -0.02554  -0.02482  -1.62342
   D40       -0.49184  -0.00013   0.00000  -0.02643  -0.02674  -0.51858
   D41       -1.46986   0.00049   0.00000  -0.01846  -0.01761  -1.48748
   D42        0.28303   0.00002   0.00000   0.06410   0.05852   0.34155
   D43        2.55936  -0.00012   0.00000  -0.15111  -0.14744   2.41192
   D44        1.37312  -0.00009   0.00000  -0.00542  -0.00465   1.36847
   D45        2.47988  -0.00044   0.00000  -0.00632  -0.00657   2.47331
   D46        1.50185   0.00018   0.00000   0.00166   0.00255   1.50440
   D47       -3.02844  -0.00029   0.00000   0.08422   0.07868  -2.94975
   D48       -0.75211  -0.00043   0.00000  -0.13099  -0.12727  -0.87938
         Item               Value     Threshold  Converged?
 Maximum Force            0.005738     0.000450     NO 
 RMS     Force            0.000711     0.000300     NO 
 Maximum Displacement     0.138935     0.001800     NO 
 RMS     Displacement     0.023469     0.001200     NO 
 Predicted change in Energy=-7.772003D-04
 GradGradGradGradGradGradGradGradGradGradGradGradGradGradGradGradGradGrad

                          Input orientation:                          
 ---------------------------------------------------------------------
 Center     Atomic      Atomic             Coordinates (Angstroms)
 Number     Number       Type             X           Y           Z
 ---------------------------------------------------------------------
      1          6           0        0.004001   -0.021750    0.016643
      2          6           0       -0.007554    0.002434    1.481130
      3          1           0        0.982199   -0.020941   -0.456775
      4          1           0       -0.962021    0.198875    1.963645
      5          1           0        0.839256    0.465706    1.980526
      6          6           0       -1.183191   -0.270588   -0.817158
      7          1           0       -1.176682    0.458193   -1.636008
      8          1           0       -1.089768   -1.254114   -1.294097
      9          1           0       -2.118369   -0.208618   -0.259258
     10          8           0        0.150768   -1.441845    1.289739
     11          1           0        1.089094   -1.690380    1.383896
     12          8           0        0.129678    2.364537   -0.117235
     13          1           0        0.899121    2.852036   -0.449833
     14          1           0       -0.630491    2.931593   -0.324612
 ---------------------------------------------------------------------
                    Distance matrix (angstroms):
                    1          2          3          4          5
     1  C    0.000000
     2  C    1.464732   0.000000
     3  H    1.086736   2.176151   0.000000
     4  H    2.184649   1.087390   3.112353   0.000000
     5  H    2.189087   1.086786   2.489517   1.821012   0.000000
     6  C    1.471928   2.595919   2.209324   2.828812   3.529796
     7  H    2.087010   3.360227   2.506177   3.615360   4.140456
     8  H    2.105490   3.232953   2.552424   3.569367   4.171579
     9  H    2.148371   2.743909   3.112516   2.538600   3.770795
    10  O    1.912847   1.465482   2.400116   2.093898   2.142417
    11  H    2.414774   2.019334   2.487272   2.848239   2.251020
    12  O    2.393342   2.855370   2.555892   3.195617   2.917133
    13  H    3.045897   3.559622   2.874186   4.040791   3.406582
    14  H    3.039946   3.496960   3.366852   3.579634   3.681632
                    6          7          8          9         10
     6  C    0.000000
     7  H    1.096211   0.000000
     8  H    1.097052   1.748271   0.000000
     9  H    1.090711   1.796344   1.794986   0.000000
    10  O    2.755051   3.732594   2.872347   3.011515   0.000000
    11  H    3.467525   4.343952   3.479858   3.896588   0.975239
    12  O    3.026120   2.765392   3.995834   3.419798   4.058148
    13  H    3.771171   3.383260   4.639928   4.302228   4.692926
    14  H    3.286646   2.852331   4.320993   3.475482   4.726886
                   11         12         13         14
    11  H    0.000000
    12  O    4.429021   0.000000
    13  H    4.902265   0.969700   0.000000
    14  H    5.219062   0.970780   1.536790   0.000000
 Stoichiometry    C3H9O2(1+)
 Framework group  C1[X(C3H9O2)]
 Deg. of freedom    36
 Full point group                 C1      NOp   1
 Largest Abelian subgroup         C1      NOp   1
 Largest concise Abelian subgroup C1      NOp   1
                         Standard orientation:                         
 ---------------------------------------------------------------------
 Center     Atomic      Atomic             Coordinates (Angstroms)
 Number     Number       Type             X           Y           Z
 ---------------------------------------------------------------------
      1          6           0       -0.098169    0.227528   -0.353691
      2          6           0       -0.654054   -0.882917    0.423061
      3          1           0        0.069964    0.038586   -1.410586
      4          1           0       -0.645079   -0.780741    1.505603
      5          1           0       -0.442686   -1.891044    0.076496
      6          6           0        0.026288    1.606787    0.145033
      7          1           0        1.018912    1.976990   -0.136613
      8          1           0       -0.690611    2.247737   -0.382946
      9          1           0       -0.118404    1.686510    1.223160
     10          8           0       -1.908217   -0.338860   -0.104871
     11          1           0       -2.192449   -0.851007   -0.884621
     12          8           0        2.144004   -0.547205   -0.036617
     13          1           0        2.707729   -0.890353   -0.747097
     14          1           0        2.761945   -0.156539    0.602087
 ---------------------------------------------------------------------
 Rotational constants (GHZ):      6.5626117      2.9587824      2.2533780
 Standard basis: 6-31++G(d,p) (6D, 7F)
 There are   149 symmetry adapted basis functions of A   symmetry.
 Integral buffers will be    131072 words long.
 Raffenetti 2 integral format.
 Two-electron integral symmetry is turned on.
   149 basis functions,   232 primitive gaussians,   149 cartesian basis functions
    21 alpha electrons       21 beta electrons
       nuclear repulsion energy       192.0200933819 Hartrees.
 NAtoms=   14 NActive=   14 NUniq=   14 SFac= 1.00D+00 NAtFMM=   50 NAOKFM=F Big=F
 ------------------------------------------------------------------------------
 Polarizable Continuum Model (PCM)
 =================================
 Model                : PCM.
 Atomic radii         : SMD-Coulomb.
 Polarization charges : Total charges.
 Charge compensation  : None.
 Solution method      : Matrix inversion.
 Cavity type          : VdW (van der Waals Surface) (Alpha=1.000).
 Cavity algorithm     : GePol (No added spheres)
                        Default sphere list used, NSphG=   14.
                        Lebedev-Laikov grids with approx.  5.0 points / Ang**2.
                        Smoothing algorithm: Karplus/York (Gamma=1.0000).
                        Polarization charges: spherical gaussians, with
                                              point-specific exponents (IZeta= 3).
                        Self-potential: point-specific (ISelfS= 7).
                        Self-field    : sphere-specific E.n sum rule (ISelfD= 2).
 1st derivatives      : Analytical E(r).r(x)/FMM algorithm (CHGder, D1EAlg=3).
                        Cavity 1st derivative terms included.
 Solvent              : Water, Eps=  78.355300 Eps(inf)=   1.777849
 ------------------------------------------------------------------------------
 Spheres list:
 ISph  on   Nord    Re0     Alpha      Xe            Ye            Ze
    1   C      1    1.850   1.000     -0.098169      0.227528     -0.353691
    2   C      2    1.850   1.000     -0.654054     -0.882917      0.423061
    3   H      3    1.200   1.000      0.069964      0.038586     -1.410586
    4   H      4    1.200   1.000     -0.645079     -0.780741      1.505603
    5   H      5    1.200   1.000     -0.442686     -1.891044      0.076496
    6   C      6    1.850   1.000      0.026288      1.606787      0.145033
    7   H      7    1.200   1.000      1.018912      1.976990     -0.136613
    8   H      8    1.200   1.000     -0.690611      2.247737     -0.382946
    9   H      9    1.200   1.000     -0.118404      1.686510      1.223160
   10   O     10    1.520   1.000     -1.908217     -0.338860     -0.104871
   11   H     11    1.200   1.000     -2.192449     -0.851007     -0.884621
   12   O     12    1.520   1.000      2.144004     -0.547205     -0.036617
   13   H     13    1.200   1.000      2.707729     -0.890353     -0.747097
   14   H     14    1.200   1.000      2.761945     -0.156539      0.602087
 ------------------------------------------------------------------------------
 ------------------------------------------------------------------------------
 Atomic radii for non-electrostatic terms: SMD-CDS.
 ------------------------------------------------------------------------------
 Nuclear repulsion after PCM non-electrostatic terms =      192.0264152380 Hartrees.
 One-electron integrals computed using PRISM.
 PrsmSu:  requested number of processors reduced to:  10 ShMem   1 Linda.
 NBasis=   149 RedAO= T  NBF=   149
 NBsUse=   149 1.00D-06 NBFU=   149
 Initial guess read from the read-write file.
 B after Tr=     0.000000    0.000000    0.000000
         Rot=    1.000000    0.000000    0.000000    0.000000 Ang=   0.00 deg.
 Initial guess orbital symmetries:
       Occupied  (A) (A) (A) (A) (A) (A) (A) (A) (A) (A) (A) (A)
                 (A) (A) (A) (A) (A) (A) (A) (A) (A)
       Virtual   (A) (A) (A) (A) (A) (A) (A) (A) (A) (A) (A) (A)
                 (A) (A) (A) (A) (A) (A) (A) (A) (A) (A) (A) (A)
                 (A) (A) (A) (A) (A) (A) (A) (A) (A) (A) (A) (A)
                 (A) (A) (A) (A) (A) (A) (A) (A) (A) (A) (A) (A)
                 (A) (A) (A) (A) (A) (A) (A) (A) (A) (A) (A) (A)
                 (A) (A) (A) (A) (A) (A) (A) (A) (A) (A) (A) (A)
                 (A) (A) (A) (A) (A) (A) (A) (A) (A) (A) (A) (A)
                 (A) (A) (A) (A) (A) (A) (A) (A) (A) (A) (A) (A)
                 (A) (A) (A) (A) (A) (A) (A) (A) (A) (A) (A) (A)
                 (A) (A) (A) (A) (A) (A) (A) (A) (A) (A) (A) (A)
                 (A) (A) (A) (A) (A) (A) (A) (A)
 Harris functional with IExCor=  402 diagonalized for initial guess.
 ExpMin= 3.60D-02 ExpMax= 5.48D+03 ExpMxC= 8.25D+02 IAcc=3 IRadAn=         0 AccDes= 0.00D+00
 HarFok:  IExCor=  402 AccDes= 0.00D+00 IRadAn=         0 IDoV= 1
 ScaDFX=  1.000000  1.000000  1.000000  1.000000
 FoFCou: FMM=F IPFlag=           0 FMFlag=      100000 FMFlg1=           0
         NFxFlg=           0 DoJE=T BraDBF=F KetDBF=T FulRan=T
         Omega=  0.000000  0.000000  1.000000  0.000000  0.000000 ICntrl=     500 IOpCl=  0
         NMat0=    1 NMatS0=    1 NMatT0=    0 NMatD0=    1 NMtDS0=    0 NMtDT0=    0
         I1Cent=           4 NGrid=           0.
 Petite list used in FoFCou.
 Requested convergence on RMS density matrix=1.00D-08 within 128 cycles.
 Requested convergence on MAX density matrix=1.00D-06.
 Requested convergence on             energy=1.00D-06.
 No special actions if energy rises.
 CoulSu:  requested number of processors reduced to:  14 ShMem   1 Linda.
 CoulSu:  requested number of processors reduced to:  14 ShMem   1 Linda.
 CoulSu:  requested number of processors reduced to:  15 ShMem   1 Linda.
 CoulSu:  requested number of processors reduced to:  15 ShMem   1 Linda.
 CoulSu:  requested number of processors reduced to:  15 ShMem   1 Linda.
 CoulSu:  requested number of processors reduced to:  15 ShMem   1 Linda.
 CoulSu:  requested number of processors reduced to:  15 ShMem   1 Linda.
 CoulSu:  requested number of processors reduced to:  15 ShMem   1 Linda.
 CoulSu:  requested number of processors reduced to:  15 ShMem   1 Linda.
 CoulSu:  requested number of processors reduced to:  15 ShMem   1 Linda.
 CoulSu:  requested number of processors reduced to:  15 ShMem   1 Linda.
 CoulSu:  requested number of processors reduced to:  15 ShMem   1 Linda.
 CoulSu:  requested number of processors reduced to:  15 ShMem   1 Linda.
 Error on total polarization charges =  0.03563
 SCF Done:  E(RB3LYP) =  -269.994534314     A.U. after   10 cycles
             Convg  =    0.8349D-08             -V/T =  2.0100
 SMD-CDS (non-electrostatic) energy       (kcal/mol) =       3.97
 (included in total energy above)
 PrsmSu:  requested number of processors reduced to:  10 ShMem   1 Linda.
 PrsmSu:  requested number of processors reduced to:  23 ShMem   1 Linda.
 D1PCM: PCM CHGder 1st derivatives, ID1Alg=3 FixD1E=F DoIter=F DoCFld=F I1PDM=0.
 CoulSu:  requested number of processors reduced to:  22 ShMem   1 Linda.
 CoulSu:  requested number of processors reduced to:  22 ShMem   1 Linda.
 CoulSu:  requested number of processors reduced to:  15 ShMem   1 Linda.
 CoulSu:  requested number of processors reduced to:  10 ShMem   1 Linda.
 CoulSu:  requested number of processors reduced to:  10 ShMem   1 Linda.
 CoulSu:  requested number of processors reduced to:  22 ShMem   1 Linda.
 CoulSu:  requested number of processors reduced to:  22 ShMem   1 Linda.
 Calling FoFJK, ICntrl=      2127 FMM=F ISym2X=0 I1Cent= 0 IOpClX= 0 NMat=1 NMatS=1 NMatT=0.
 CoulSu:  requested number of processors reduced to:  16 ShMem   1 Linda.
 ***** Axes restored to original set *****
 -------------------------------------------------------------------
 Center     Atomic                   Forces (Hartrees/Bohr)
 Number     Number              X              Y              Z
 -------------------------------------------------------------------
      1        6           0.000166514    0.000668121   -0.000374660
      2        6          -0.000573988    0.000432467   -0.001134025
      3        1          -0.000260836   -0.000405388    0.000353693
      4        1          -0.000122374    0.000083503   -0.000480417
      5        1           0.000320820   -0.000967501   -0.000387117
      6        6           0.000012286    0.000140063    0.000408463
      7        1           0.000094711   -0.000014911    0.000245573
      8        1           0.000391146    0.000333344   -0.000150858
      9        1           0.000183083    0.000138616    0.000381764
     10        8          -0.000887364   -0.001341776    0.001475916
     11        1           0.000754801    0.001080204   -0.000688072
     12        8          -0.000564975    0.003968132    0.001015693
     13        1           0.000294363   -0.001689579   -0.000289868
     14        1           0.000191813   -0.002425296   -0.000376086
 -------------------------------------------------------------------
 Cartesian Forces:  Max     0.003968132 RMS     0.000952643

 GradGradGradGradGradGradGradGradGradGradGradGradGradGradGradGradGradGrad
 Berny optimization.
 Internal  Forces:  Max     0.002031183 RMS     0.000339339
 Search for a saddle point.
 Step number   2 out of a maximum of  100
 All quantities printed in internal units (Hartrees-Bohrs-Radians)
 Swaping is turned off.
 Update second derivatives using D2CorX and points    1    2
 ITU=  0  0
     Eigenvalues ---   -0.00595  -0.00079   0.00013   0.00037   0.00080
     Eigenvalues ---    0.00261   0.00314   0.00605   0.00674   0.00990
     Eigenvalues ---    0.01169   0.01959   0.02190   0.02680   0.03016
     Eigenvalues ---    0.03774   0.04004   0.05327   0.05740   0.06286
     Eigenvalues ---    0.07607   0.09521   0.11590   0.14814   0.21974
     Eigenvalues ---    0.24596   0.28557   0.30507   0.32076   0.32548
     Eigenvalues ---    0.33672   0.35204   0.35857   0.36152   0.38092
     Eigenvalues ---    0.51017
 Eigenvectors required to have negative eigenvalues:
                          R5        R4        R6        A13       R16
   1                   -0.38146  -0.34915  -0.34388   0.26001  -0.23842
                          D4        D2        R11       D13       A18
   1                   -0.21087   0.20584  -0.19637   0.18182   0.15931
 RFO step:  Lambda0=9.121505451D-05 Lambda=-1.46212385D-03.
 Linear search not attempted -- option 19 set.
 Maximum step size (   0.300) exceeded in Quadratic search.
    -- Step size scaled by   0.497
 Iteration  1 RMS(Cart)=  0.02240682 RMS(Int)=  0.00314810
 Iteration  2 RMS(Cart)=  0.00154468 RMS(Int)=  0.00250177
 Iteration  3 RMS(Cart)=  0.00000374 RMS(Int)=  0.00250177
 Iteration  4 RMS(Cart)=  0.00000001 RMS(Int)=  0.00250177
 Variable       Old X    -DE/DX   Delta X   Delta X   Delta X     New X
                                 (Linear)    (Quad)   (Total)
    R1        2.76794  -0.00052   0.00000  -0.00570  -0.00560   2.76234
    R2        2.05363  -0.00037   0.00000  -0.00103  -0.00139   2.05224
    R3        2.78154  -0.00069   0.00000   0.00252   0.00394   2.78548
    R4        4.52276   0.00038   0.00000   0.07742   0.07843   4.60119
    R5        5.75591  -0.00026   0.00000   0.02715   0.02559   5.78150
    R6        5.74467  -0.00083   0.00000  -0.00211  -0.00625   5.73842
    R7        2.05487  -0.00009   0.00000  -0.00085  -0.00085   2.05402
    R8        2.05373  -0.00020   0.00000  -0.00114  -0.00077   2.05295
    R9        2.76936   0.00013   0.00000   0.00785   0.00785   2.77721
   R10        5.39587   0.00008   0.00000  -0.00076  -0.00018   5.39569
   R11        4.82994   0.00037   0.00000   0.08115   0.08230   4.91224
   R12        5.51258  -0.00009   0.00000   0.00303   0.00351   5.51609
   R13        2.07154  -0.00014   0.00000  -0.00007   0.00016   2.07170
   R14        2.07313  -0.00019   0.00000  -0.00144  -0.00144   2.07169
   R15        2.06114   0.00004   0.00000   0.00010   0.00010   2.06125
   R16        5.71854  -0.00029   0.00000   0.06136   0.06134   5.77988
   R17        5.22583  -0.00027   0.00000   0.02251   0.02246   5.24830
   R18        1.84293   0.00039   0.00000   0.00153   0.00153   1.84447
   R19        1.83247  -0.00027   0.00000   0.00203   0.00428   1.83674
   R20        1.83451  -0.00091   0.00000   0.00363   0.00805   1.84256
    A1        2.02935  -0.00012   0.00000   0.00065   0.00002   2.02936
    A2        2.16857  -0.00011   0.00000   0.00115   0.00176   2.17033
    A3        1.71112   0.00006   0.00000   0.00229   0.00150   1.71262
    A4        1.66549   0.00005   0.00000   0.01926   0.01857   1.68406
    A5        2.07072   0.00022   0.00000   0.00308   0.00278   2.07349
    A6        1.23243   0.00004   0.00000  -0.00252  -0.00148   1.23095
    A7        1.70949   0.00007   0.00000  -0.01229  -0.01391   1.69558
    A8        1.88576  -0.00007   0.00000  -0.02417  -0.02507   1.86069
    A9        1.50305  -0.00009   0.00000  -0.03344  -0.03172   1.47133
   A10        0.51056   0.00000   0.00000  -0.00410  -0.00689   0.50367
   A11        2.04156  -0.00012   0.00000   0.00430   0.00405   2.04561
   A12        2.04916  -0.00027   0.00000   0.00571   0.00485   2.05401
   A13        1.42255   0.00061   0.00000  -0.02732  -0.02711   1.39544
   A14        1.98562   0.00040   0.00000   0.00913   0.00964   1.99526
   A15        1.90797  -0.00017   0.00000   0.00089   0.00109   1.90906
   A16        1.71240  -0.00023   0.00000  -0.00604  -0.00665   1.70575
   A17        1.97789  -0.00050   0.00000  -0.00479  -0.00515   1.97274
   A18        2.39939   0.00071   0.00000   0.00184   0.00229   2.40168
   A19        1.88174   0.00011   0.00000  -0.00476  -0.00428   1.87747
   A20        1.90620  -0.00031   0.00000   0.00327   0.00286   1.90905
   A21        1.97381  -0.00011   0.00000  -0.00222  -0.00217   1.97164
   A22        1.84499  -0.00004   0.00000   0.00411   0.00428   1.84927
   A23        1.92773   0.00001   0.00000  -0.00379  -0.00417   1.92356
   A24        1.92445   0.00032   0.00000   0.00370   0.00375   1.92820
[...]
   A18        2.34183   0.00000   0.00000  -0.00096  -0.00096   2.34087
   A19        1.86914   0.00000   0.00000  -0.00006  -0.00006   1.86908
   A20        1.92084   0.00000   0.00000   0.00004   0.00004   1.92089
   A21        1.96716   0.00000   0.00000  -0.00005  -0.00005   1.96711
   A22        1.85197   0.00000   0.00000   0.00013   0.00013   1.85210
   A23        1.91233   0.00000   0.00000  -0.00006  -0.00006   1.91227
   A24        1.93755   0.00000   0.00000   0.00000   0.00000   1.93755
   A25        2.44366   0.00000   0.00000  -0.00114  -0.00114   2.44251
   A26        1.90144   0.00000   0.00000   0.00114   0.00114   1.90258
   A27        1.91051   0.00000   0.00000  -0.00005  -0.00005   1.91046
   A28        0.78588   0.00000   0.00000   0.00001   0.00001   0.78589
   A29        0.83193   0.00000   0.00000   0.00012   0.00012   0.83205
   A30        0.78969   0.00000   0.00000   0.00005   0.00005   0.78974
   A31        0.88657   0.00000   0.00000  -0.00006  -0.00006   0.88651
   A32        1.24414   0.00000   0.00000  -0.00014  -0.00013   1.24401
   A33        1.68641   0.00000   0.00000   0.00586   0.00587   1.69227
   A34        1.39983   0.00000   0.00000   0.00009   0.00010   1.39992
   A35        0.89529   0.00000   0.00000   0.00015   0.00015   0.89544
   A36        0.78712   0.00000   0.00000   0.00009   0.00009   0.78721
   A37        1.01588   0.00000   0.00000   0.00042   0.00042   1.01630
   A38        2.15171   0.00000   0.00000   0.00244   0.00243   2.15413
   A39        1.85273   0.00000   0.00000   0.00262   0.00262   1.85535
   A40        1.22878   0.00000   0.00000  -0.00002  -0.00002   1.22876
   A41        1.58685   0.00000   0.00000  -0.00003  -0.00003   1.58682
   A42        1.91464   0.00001   0.00000   0.00646   0.00646   1.92110
   A43        1.08249   0.00000   0.00000   0.00079   0.00080   1.08328
   A44        1.37690   0.00000   0.00000   0.00138   0.00139   1.37829
   A45        2.28017   0.00000   0.00000  -0.00045  -0.00046   2.27972
   A46        1.25147   0.00000   0.00000  -0.00148  -0.00147   1.25000
   A47        2.62488   0.00000   0.00000  -0.00135  -0.00136   2.62351
   A48        1.82703   0.00000   0.00000   0.00001   0.00001   1.82703
    D1        2.93715   0.00000   0.00000   0.00021   0.00021   2.93735
    D2        0.42021   0.00000   0.00000  -0.00024  -0.00024   0.41997
    D3       -1.49537   0.00000   0.00000  -0.00001  -0.00001  -1.49538
    D4       -0.33092   0.00000   0.00000   0.00062   0.00062  -0.33030
    D5       -2.84786   0.00000   0.00000   0.00017   0.00017  -2.84769
    D6        1.51975   0.00000   0.00000   0.00040   0.00040   1.52015
    D7        1.11443   0.00000   0.00000   0.00147   0.00148   1.11591
    D8       -1.40250   0.00000   0.00000   0.00102   0.00103  -1.40148
    D9        2.96510   0.00000   0.00000   0.00126   0.00126   2.96636
   D10        1.59136   0.00000   0.00000  -0.00021  -0.00021   1.59115
   D11       -0.92558   0.00000   0.00000  -0.00066  -0.00066  -0.92624
   D12       -2.84116   0.00000   0.00000  -0.00043  -0.00043  -2.84159
   D13        2.15653   0.00000   0.00000  -0.00091  -0.00091   2.15563
   D14       -2.12096   0.00000   0.00000  -0.00076  -0.00076  -2.12172
   D15        0.05222   0.00000   0.00000  -0.00076  -0.00076   0.05146
   D16       -1.11449   0.00000   0.00000  -0.00048  -0.00048  -1.11496
   D17        0.89121   0.00000   0.00000  -0.00033  -0.00033   0.89088
   D18        3.06438   0.00000   0.00000  -0.00033  -0.00033   3.06405
   D19        0.62702   0.00000   0.00000  -0.00346  -0.00346   0.62356
   D20        2.63272   0.00000   0.00000  -0.00331  -0.00332   2.62940
   D21       -1.47729   0.00000   0.00000  -0.00331  -0.00332  -1.48061
   D22        0.57899   0.00000   0.00000  -0.00040  -0.00040   0.57859
   D23        2.58469   0.00000   0.00000  -0.00026  -0.00026   2.58443
   D24       -1.52532   0.00000   0.00000  -0.00026  -0.00026  -1.52558
   D25        1.69672   0.00000   0.00000  -0.00012  -0.00012   1.69660
   D26       -2.57361   0.00000   0.00000  -0.00022  -0.00022  -2.57383
   D27       -0.32311   0.00000   0.00000  -0.00007  -0.00007  -0.32317
   D28        1.50424   0.00000   0.00000  -0.00100  -0.00100   1.50324
   D29       -2.58632   0.00000   0.00000   0.00041   0.00040  -2.58592
   D30       -1.50942   0.00000   0.00000   0.00056   0.00056  -1.50886
   D31       -1.47944   0.00000   0.00000   0.00113   0.00113  -1.47831
   D32       -0.29091   0.00000   0.00000  -0.00294  -0.00294  -0.29385
   D33        1.52108   0.00000   0.00000  -0.00380  -0.00379   1.51729
   D34       -0.32455   0.00000   0.00000   0.00089   0.00089  -0.32367
   D35        0.75235   0.00000   0.00000   0.00104   0.00104   0.75339
   D36        0.78233   0.00000   0.00000   0.00161   0.00161   0.78394
   D37        1.97086   0.00000   0.00000  -0.00245  -0.00246   1.96840
   D38       -2.50034   0.00000   0.00000  -0.00331  -0.00331  -2.50365
   D39       -1.89601   0.00000   0.00000  -0.00087  -0.00087  -1.89688
   D40       -0.81433   0.00000   0.00000  -0.00078  -0.00078  -0.81511
   D41       -1.76361   0.00000   0.00000  -0.00105  -0.00105  -1.76466
   D42        2.49922   0.00000   0.00000  -0.00768  -0.00768   2.49153
   D43       -2.04049   0.00000   0.00000  -0.00649  -0.00649  -2.04698
   D44        1.28629   0.00000   0.00000  -0.00073  -0.00073   1.28556
   D45        2.36797   0.00000   0.00000  -0.00065  -0.00065   2.36733
   D46        1.41869   0.00000   0.00000  -0.00091  -0.00091   1.41778
   D47       -0.60167   0.00000   0.00000  -0.00754  -0.00754  -0.60921
   D48        1.14180   0.00000   0.00000  -0.00635  -0.00635   1.13546
         Item               Value     Threshold  Converged?
 Maximum Force            0.000018     0.000450     YES
 RMS     Force            0.000004     0.000300     YES
 Maximum Displacement     0.011668     0.001800     NO 
 RMS     Displacement     0.001411     0.001200     NO 
 Predicted change in Energy=-1.078859D-07
 GradGradGradGradGradGradGradGradGradGradGradGradGradGradGradGradGradGrad

 1\1\GINC-C41N09\Freq\RB3LYP\6-31++G(d,p)\C3H9O2(1+)\ROOT\26-Apr-2018\0
 \\#N Geom=AllCheck Guess=TCheck SCRF=Check GenChk RB3LYP/6-31++G(d,p) 
 Freq\\H3O-BACK-MIDM\\1,1\C,-0.0284207259,-0.0619014931,-0.0642022684\C
 ,0.2156487096,0.0706285913,1.3679297608\H,0.8477416822,-0.1536643627,-
 0.698385318\H,-0.623651287,0.3572250459,1.9956506491\H,1.176681003,0.4
 630068789,1.6874264003\C,-1.3639893368,-0.2304981918,-0.6625961638\H,-
 1.4971357673,0.5816842748,-1.3882840066\H,-1.4029333977,-1.1612729134,
 -1.2378029912\H,-2.1647176856,-0.1941792392,0.0774546664\O,0.225356094
 7,-1.3940795228,1.2010831911\H,1.1474933622,-1.7065697951,1.1218852826
 \O,0.2436021799,2.3714882957,-0.5163577042\H,-0.6490446335,2.691830659
 6,-0.3149614956\H,0.799410647,2.7314387845,0.1917637428\\Version=EM64L
 -G09RevB.01\State=1-A\HF=-269.9962745\RMSD=8.738e-10\RMSF=1.070e-05\Ze
 roPoint=0.1203048\Thermal=0.1282907\Dipole=0.6359952,0.1823568,0.78297
 6\DipoleDeriv=0.7483351,-0.0718397,0.5110989,-0.1386316,1.6131815,-0.8
 026168,0.4139175,-0.503442,0.9308279,0.245217,-0.0883297,-0.0528306,0.
 0228274,0.5331995,0.2898856,0.0012543,-0.1625118,0.4071033,0.0569779,0
 .0173497,-0.0177462,0.026585,0.0537261,0.0157548,-0.0176846,0.0323241,
 0.0920284,0.0454458,0.0215597,0.0574105,-0.0106332,0.0899617,-0.016679
 5,0.0357344,-0.0385425,0.0748459,0.0347692,-0.0383658,-0.0395442,0.002
 422,0.0655583,-0.0290036,-0.0277711,-0.0259632,0.0995464,-0.2560914,-0
 .017007,-0.26607,0.0001837,-0.1201709,0.0087182,-0.3399514,0.0264736,-
 0.3232288,0.0977848,-0.0200994,-0.0341906,-0.0225436,0.0740654,0.07132
 16,0.048149,0.078339,0.1566261,0.0598045,0.0296542,-0.0422503,-0.01403
 3,0.0387335,-0.089121,0.0517361,-0.0647279,0.1469066,0.0046,-0.0025808
 ,0.0369467,-0.0175226,0.1306597,-0.0305948,0.0989283,-0.014053,0.00837
 77,-0.5215467,0.417672,-0.2627013,0.3145688,-1.5192697,0.4568747,-0.26
 21073,0.5534735,-0.9846077,0.4434355,-0.1923564,0.1036013,-0.094053,0.
 4410382,-0.029856,0.0027002,0.048952,0.3670858,-0.7229342,-0.0834778,-
 0.0164769,-0.0959826,-1.1975605,0.2722403,-0.028195,0.1488935,-0.68254
 19,0.3491009,-0.0156632,0.0486514,0.035785,0.4037708,-0.0518664,0.0483
 325,-0.0490251,0.3837046,0.4151018,0.0434841,-0.0258985,-0.0089723,0.3
 931064,-0.065057,-0.0250427,-0.0301901,0.3233256\Polar=58.4907141,-1.5
 516873,68.9394513,5.7343618,-6.9244496,63.8684727\PG=C01 [X(C3H9O2)]\N
 Imag=1\\0.62876323,0.01626756,0.11460536,-0.06043187,0.11203138,0.6010
 7189,-0.09780198,-0.00865712,-0.03197242,0.70887189,-0.02208067,0.0139
 7926,-0.07199855,0.03394293,0.34007923,-0.03383636,-0.03215430,-0.3147
 4352,-0.02178797,0.13581940,0.59643884,-0.25729857,0.02083019,0.145435
 40,0.00744506,0.00023782,-0.00676254,0.26207352,0.02132540,-0.04452577
 ,-0.02604485,0.01237149,-0.00053335,-0.00237915,-0.02080910,0.03800081
 ,0.14010618,-0.01259789,-0.15611378,0.02148936,-0.00364023,-0.01754412
 ,-0.14652534,0.01631595,0.16401363,0.00726353,-0.00199713,-0.00555009,
 -0.23807288,0.05700394,0.13267832,0.00040615,-0.00055629,-0.00161730,0
 .23826599,-0.00732803,0.00005818,0.00407843,0.04681871,-0.06042968,-0.
 03626945,0.00078392,0.00090985,0.00155401,-0.06039068,0.07436786,0.026
 33349,-0.00560604,-0.01799228,0.12843652,-0.04535098,-0.14892749,-0.00
 190522,-0.00212366,-0.00313103,-0.13912503,0.04806499,0.15356397,-0.00
 142987,0.00019094,0.00141645,-0.29466423,-0.09411979,-0.07656204,0.000
 83440,-0.00001398,0.00015946,-0.01299963,-0.00754453,-0.00764663,0.297
 93176,0.00943509,-0.00005759,0.00032599,-0.08206583,-0.07940644,-0.027
 10202,-0.00064259,-0.00001284,-0.00025934,0.00671776,0.00688052,0.0031
 2830,0.09628750,0.09234841,-0.03058231,-0.00801042,-0.00715022,-0.0703
 0715,-0.03123952,-0.07890787,0.00031925,0.00096833,0.00149723,0.014635
 74,0.00685601,0.00814326,0.08026146,0.03551381,0.07695890,-0.23320847,
 -0.02437198,-0.04736192,0.00021846,0.00205840,-0.00245916,-0.01525780,
 -0.00249286,-0.01222433,0.00124109,0.00004168,0.00110805,0.00077134,-0
 .00012277,0.00153382,0.54429554,-0.02847518,-0.07459806,-0.02753331,-0
 .01226068,0.00183425,0.00422893,0.00182747,0.00510847,-0.00029436,0.00
 015812,0.00011199,0.00087996,-0.00028981,0.00076024,-0.00202170,0.0047
 5989,0.53289914,-0.03375476,-0.01448041,-0.09508141,-0.02480948,-0.000
 21180,-0.00737381,0.01658904,-0.00083460,0.01270829,-0.00070920,-0.001
 09842,0.00172810,-0.00021384,0.00157724,-0.00329039,-0.05790088,0.0124
 8730,0.56068334,-0.00080349,0.02300628,-0.01527727,-0.00118298,0.00051
 152,-0.00116497,0.00081430,-0.00168615,0.00132875,0.00006815,-0.000215
 49,0.00002798,-0.00005217,0.00005383,-0.00034074,-0.05029479,0.0259249
 1,-0.02262505,0.05001595,0.00141597,0.00120903,-0.00121278,-0.00021336
 ,-0.00098918,-0.00093371,0.00021004,0.00075072,0.00004108,-0.00001012,
 -0.00004712,-0.00000272,-0.00008908,0.00008894,-0.00013705,0.02499432,
 -0.18338817,0.13541307,-0.02669211,0.20322264,-0.00582642,0.01129352,-
 0.01523380,-0.00128675,-0.00157436,-0.00172476,-0.00025143,-0.00028868
 ,0.00036445,-0.00013937,-0.00004109,0.00016432,-0.00014345,0.00024686,
 -0.00021862,-0.01817922,0.13701465,-0.15605047,0.02605153,-0.14644467,
 0.17019800,-0.00039025,-0.02796257,-0.01875762,-0.00380917,-0.00066134
 ,0.00169872,0.00113719,0.00110660,0.00050527,0.00000266,-0.00003285,-0
 .00002511,-0.00008261,0.00020536,-0.00105399,-0.04916215,-0.00826166,-
 0.00030522,0.00025286,0.00422255,0.00295063,0.04923064,0.00153744,-0.0
 0237988,0.00132974,0.00031157,-0.00021991,0.00084499,-0.00023175,0.000
 81045,-0.00014877,-0.00000266,0.00001916,-0.00001901,0.00010542,0.0001
 2266,0.00004148,-0.01046011,-0.23886500,-0.12651757,-0.00135046,-0.019
 60286,-0.01203295,0.00964583,0.25897267,-0.00692474,-0.00947947,-0.015
 08724,-0.00311112,-0.00226355,-0.00037187,-0.00013476,0.00104529,0.000
 33558,0.00003891,0.00001372,0.00039101,-0.00021652,0.00044247,-0.00069
 323,0.00299341,-0.12495485,-0.11328730,0.00169614,0.01730148,0.0105967
 8,0.00629126,0.13419719,0.12413031,-0.02521913,0.00063894,0.02141740,0
 .00160852,0.00044257,0.00204311,-0.00282049,-0.00060505,-0.00326740,0.
 00029516,0.00008625,-0.00082161,0.00029501,-0.00034135,0.00012907,-0.1
 9399518,0.00550716,0.13624434,0.00465441,-0.00097530,-0.00417508,0.002
 49619,0.00065141,-0.00268478,0.21234178,-0.00088533,-0.00149510,0.0049
 3908,-0.00031110,-0.00002391,0.00022506,-0.00046119,0.00265524,-0.0008
 1565,0.00004020,-0.00007459,-0.00008986,0.00002434,-0.00000534,0.00000
 273,0.00522751,-0.04757225,-0.00954467,-0.01732008,0.00196332,0.013803
 68,0.01958621,0.00169536,-0.01631355,-0.00586052,0.04371386,-0.0144272
 7,0.00050822,0.01171898,-0.00104928,0.00045802,0.00181246,-0.00290510,
 -0.00026139,-0.00101580,0.00050900,-0.00014724,0.00010891,0.00000652,-
 0.00000962,0.00012275,0.14277742,-0.00831298,-0.18246572,0.01377596,-0
 .00277083,-0.01201371,0.00940204,0.00192723,-0.00917172,-0.14844053,0.
 00848297,0.19063845,-0.01429297,-0.00806108,0.01614449,-0.08463870,0.0
 2949529,0.00646886,0.00131076,-0.00914708,0.00092404,0.00259968,0.0291
 0200,-0.00586594,0.00762850,-0.02801776,0.00556477,-0.00321297,0.01406
 032,-0.01100673,-0.00331543,-0.00031141,0.00032059,0.00041510,0.000308
 39,0.00146490,0.00017100,0.00013751,0.00022221,0.54095780,-0.00485736,
 -0.01974147,0.00951074,-0.02553582,-0.18503641,-0.03419923,-0.00016238
 ,0.00060733,-0.00356022,-0.00044862,-0.01790210,-0.00082761,0.00559702
 ,-0.02348973,-0.00048897,0.00522560,0.00717945,0.00824014,-0.00048414,
 -0.00052760,-0.00284885,0.00299913,-0.00019107,-0.00136272,0.00071689,
 -0.00038247,0.00007780,-0.12737357,0.32124051,0.03086537,-0.03754246,0
 .00635187,-0.00618642,0.01584970,-0.02630822,-0.00379932,0.01518469,-0
 .00088724,-0.00055215,-0.01901790,0.00579891,0.00278031,-0.01430412,0.
 00221784,-0.00924298,0.00703031,-0.01473060,-0.00250700,-0.00045896,0.
 00335616,-0.00045872,0.00060744,0.00276917,-0.00053017,-0.00055689,0.0
 0014719,-0.05093074,0.03494044,0.04180976,-0.00150435,0.00452016,-0.00
 529587,0.00241718,-0.00550846,-0.00029500,0.00069375,-0.00060438,-0.00
 000215,0.00090719,-0.00139902,-0.00033414,0.00157775,-0.00173658,-0.00
 031768,0.00025426,0.00020060,0.00085255,0.00036259,-0.00006178,-0.0001
 3843,0.00038619,0.00005825,-0.00010092,0.00020418,0.00004741,0.0000118
 0,-0.44879349,0.14457450,0.04082804,0.44355928,0.00583010,-0.00699571,
 -0.00230597,0.03660065,-0.01955904,-0.00244878,-0.00025261,0.00106009,
 0.00085139,-0.00040006,-0.00423035,0.00179387,-0.00033145,0.00241854,-
 0.00141403,-0.00020129,0.00027088,-0.00021588,-0.00020349,0.00003332,-
 0.00013440,-0.00008382,0.00003418,0.00005576,-0.00004065,-0.00007391,-
 0.00006745,0.09784448,-0.07121611,-0.01129098,-0.13855172,0.09773750,-
 0.01122140,-0.00070332,0.00820686,0.00997752,0.00110440,-0.00591388,0.
 00029001,-0.00091367,-0.00053983,-0.00020475,-0.00386294,0.00002053,0.
 00002857,0.00034394,0.00111997,-0.00041214,0.00232872,-0.00231938,-0.0
 0071747,-0.00003601,-0.00004474,-0.00010446,0.00001863,0.00023653,0.00
 009865,-0.00004711,0.00009513,0.03767676,-0.01386702,-0.01837195,-0.03
 568760,0.01511890,0.01777084,-0.00430323,0.00483695,0.00052593,-0.0004
 6339,-0.00059927,-0.00010622,0.00067585,0.00121496,-0.00092669,0.00001
 819,0.00008624,-0.00016656,0.00017229,0.00012257,0.00016451,-0.0017515
 2,-0.00256912,-0.00203095,-0.00037607,-0.00212581,0.00078903,-0.000436
 70,-0.00053776,0.00064169,-0.00000362,-0.00021275,0.00008797,0.0011072
 4,-0.00000348,-0.00064962,-0.00004856,-0.00023150,0.00028217,0.6297087
 4,0.00549679,0.02186121,0.00021531,-0.00021447,-0.00747545,-0.00694359
 ,-0.00107517,-0.00393149,0.00219495,-0.00012288,0.00031440,0.00009219,
 -0.00015259,0.00013656,-0.00018501,-0.00321350,-0.00225396,-0.00432935
 ,-0.00082878,-0.00205535,0.00096883,-0.00071325,-0.00040345,0.00125529
 ,-0.00019993,-0.00032110,0.00008878,0.00243022,-0.01156992,0.00925732,
 -0.00167917,0.00044240,0.00063628,-0.05538381,0.15696826,-0.00008543,-
 0.00035660,-0.00712511,0.00051474,0.00219294,0.00266337,-0.00026089,-0
 .00080109,0.00038263,0.00001124,-0.00009789,0.00014438,0.00019127,0.00
 013362,0.00028368,-0.00093327,-0.00105139,-0.00073140,-0.00013713,-0.0
 0107626,0.00064040,-0.00024446,-0.00041001,0.00026116,-0.00006602,-0.0
 0011377,0.00003943,-0.00084824,0.00360475,-0.00122781,0.00041479,0.000
 09777,-0.00021480,0.11009367,0.19637855,0.33981227,0.00091779,0.003859
 94,-0.00062233,-0.00004045,-0.00027223,-0.00091178,-0.00010209,-0.0003
 2892,0.00017386,0.00002225,0.00000939,-0.00000158,-0.00003059,-0.00000
 586,-0.00000548,-0.00007903,-0.00068435,-0.00036307,-0.00015312,-0.000
 24069,0.00002313,-0.00012896,-0.00004658,0.00005323,-0.00004023,-0.000
 05191,0.00002752,0.00030901,-0.00143374,0.00123644,-0.00018758,0.00005
 375,0.00004679,-0.43440903,0.13322062,0.06701271,0.45766613,0.00304259
 ,-0.00246283,-0.00087473,0.00028313,-0.00012335,0.00022445,-0.00024912
 ,-0.00056478,0.00035510,-0.00001044,-0.00002980,0.00006144,-0.00001370
 ,0.00001495,-0.00004137,-0.00068839,-0.00101005,0.00037230,-0.00067235
 ,-0.00001309,-0.00041537,0.00008469,0.00021744,-0.00019788,-0.00000714
 ,0.00000984,-0.00001069,-0.00046040,0.00015835,0.00040642,0.00004717,0
 .00008541,-0.00011106,0.16213680,-0.06885439,-0.04866609,-0.14601653,0
 .06805224,-0.00021851,0.00008691,0.00023952,-0.00015641,-0.00020406,0.
 00023965,-0.00006687,0.00003046,0.00000549,0.00002158,0.00001648,-0.00
 000424,0.00002866,0.00002112,0.00000291,-0.00006648,-0.00018712,-0.000
 26276,-0.00017055,0.00008255,0.00009133,-0.00002137,0.00001646,-0.0000
 0770,0.00001808,0.00001842,-0.00001263,0.00006450,0.00008167,-0.000226
 46,-0.00001560,-0.00002085,0.00000652,0.11180756,-0.05780384,-0.051921
 22,-0.07784727,0.04801247,0.04773289,-0.00069225,-0.00310107,0.0003297
 3,0.00011267,-0.00045070,0.00099702,0.00008797,0.00022537,-0.00012371,
 -0.00001753,-0.00001759,-0.00001421,0.00004804,0.00011065,-0.00000128,
 0.00018121,0.00010233,0.00003325,0.00000979,-0.00012322,0.00000523,0.0
 0008901,0.00001103,-0.00000671,0.00001239,0.00003968,0.00000173,-0.000
 24553,0.00118596,-0.00085303,0.00017160,-0.00003240,-0.00005266,-0.189
 89019,-0.07756408,-0.17566297,-0.02374410,-0.01747632,-0.03337733,0.21
 387693,-0.00072437,0.00054336,-0.00246045,-0.00107009,-0.00209602,0.00
 108741,-0.00000553,-0.00033473,0.00000397,0.00001887,0.00005167,-0.000
 00087,0.00034970,0.00020112,0.00015571,-0.00075650,-0.00047694,-0.0008
 5735,-0.00004350,-0.00064460,0.00045285,-0.00013487,-0.00020973,0.0002
 6082,-0.00001328,-0.00008895,0.00003716,-0.00000691,0.00087124,-0.0001
 0502,0.00009303,-0.00000720,-0.00000975,-0.10673401,-0.08285773,-0.149
 83452,0.01193710,0.00452005,0.00984935,0.09709035,0.08052845,0.0000040
 2,-0.00298911,0.00093824,0.00024886,0.00105858,0.00066123,-0.00002224,
 0.00010236,-0.00007548,0.00000308,-0.00004870,-0.00000834,-0.00009022,
 -0.00005826,-0.00008621,0.00036766,0.00038582,0.00047351,0.00005983,0.
 00023482,-0.00012534,0.00012302,0.00014518,-0.00010147,0.00003494,0.00
 000957,-0.00000372,-0.00019946,0.00069909,-0.00069863,0.00008019,-0.00
 001935,-0.00005180,-0.22051249,-0.14182571,-0.28300698,0.01117786,0.00
 088501,0.00411670,0.20872495,0.14142069,0.27796830\\-0.00001392,-0.000
 01715,-0.00000287,0.00001373,0.00001138,0.00002440,0.00002123,-0.00000
 113,-0.00000347,-0.00000107,0.00000222,0.00000318,-0.00001120,0.000001
 31,0.00000392,-0.00000523,-0.00000118,-0.00001231,0.00000018,-0.000007
 09,-0.00000262,0.00000101,-0.00000176,-0.00000084,-0.00000128,-0.00000
 238,-0.00000403,-0.00000569,0.00000174,0.00000180,-0.00000118,0.000002
 83,0.00000687,-0.00000371,0.00004054,-0.00000248,0.00000998,-0.0000214
 0,-0.00000027,-0.00000286,-0.00000793,-0.00001127\\\@


 Make no judgements where you have no compassion.
                               -- Anne McCaffrey
 Job cpu time:  0 days  0 hours 13 minutes 51.7 seconds.
 File lengths (MBytes):  RWF=   1408 Int=      0 D2E=      0 Chk=     32 Scr=     32
 Normal termination of Gaussian 09 at Thu Apr 26 15:49:41 2018.
