 Entering Gaussian System, Link 0=g09
 Input=H3O-term.gjf
 Output=H3O-term.log
 Initial command:
 /share/home/zxchen/g09/l1.exe /scratch/zxchen/Gau-23710.inp -scrdir=/scratch/zxchen/
 Entering Link 1 = /share/home/zxchen/g09/l1.exe PID=     23711.
  
 Copyright (c) 1988,1990,1992,1993,1995,1998,2003,2009,2010,
            Gaussian, Inc.  All Rights Reserved.
  
 This is part of the Gaussian(R) 09 program.  It is based on
 the Gaussian(R) 03 system (copyright 2003, Gaussian, Inc.),
 the Gaussian(R) 98 system (copyright 1998, Gaussian, Inc.),
 the Gaussian(R) 94 system (copyright 1995, Gaussian, Inc.),
 the Gaussian 92(TM) system (copyright 1992, Gaussian, Inc.),
 the Gaussian 90(TM) system (copyright 1990, Gaussian, Inc.),
 the Gaussian 88(TM) system (copyright 1988, Gaussian, Inc.),
 the Gaussian 86(TM) system (copyright 1986, Carnegie Mellon
 University), and the Gaussian 82(TM) system (copyright 1983,
 Carnegie Mellon University). Gaussian is a federally registered
 trademark of Gaussian, Inc.
  
 This software contains proprietary and confidential information,
 including trade secrets, belonging to Gaussian, Inc.
  
 This software is provided under written license and may be
 used, copied, transmitted, or stored only in accord with that
 written license.
  
 The following legend is applicable only to US Government
 contracts under FAR:
  
                    RESTRICTED RIGHTS LEGEND
  
 Use, reproduction and disclosure by the US Government is
 subject to restrictions as set forth in subparagraphs (a)
 and (c) of the Commercial Computer Software - Restricted
 Rights clause in FAR 52.227-19.
  
 Gaussian, Inc.
 340 Quinnipiac St., Bldg. 40, Wallingford CT 06492
  
  
 ---------------------------------------------------------------
 Warning -- This program may not be used in any manner that
 competes with the business of Gaussian, Inc. or will provide
 assistance to any competitor of Gaussian, Inc.  The licensee
 of this program is prohibited from giving any competitor of
 Gaussian, Inc. access to this program.  By using this program,
 the user acknowledges that Gaussian, Inc. is engaged in the
 business of creating and licensing software in the field of
 computational chemistry and represents and warrants to the
 licensee that it is not a competitor of Gaussian, Inc. and that
 it will not use this program in any manner prohibited above.
 ---------------------------------------------------------------
  

 Cite this work as:
 Gaussian 09, Revision B.01,
 M. J. Frisch, G. W. Trucks, H. B. Schlegel, G. E. Scuseria, 
 M. A. Robb, J. R. Cheeseman, G. Scalmani, V. Barone, B. Mennucci, 
 G. A. Petersson, H. Nakatsuji, M. Caricato, X. Li, H. P. Hratchian, 
 A. F. Izmaylov, J. Bloino, G. Zheng, J. L. Sonnenberg, M. Hada, 
 M. Ehara, K. Toyota, R. Fukuda, J. Hasegawa, M. Ishida, T. Nakajima, 
 Y. Honda, O. Kitao, H. Nakai, T. Vreven, J. A. Montgomery, Jr., 
 J. E. Peralta, F. Ogliaro, M. Bearpark, J. J. Heyd, E. Brothers, 
 K. N. Kudin, V. N. Staroverov, T. Keith, R. Kobayashi, J. Normand, 
 K. Raghavachari, A. Rendell, J. C. Burant, S. S. Iyengar, J. Tomasi, 
 M. Cossi, N. Rega, J. M. Millam, M. Klene, J. E. Knox, J. B. Cross, 
 V. Bakken, C. Adamo, J. Jaramillo, R. Gomperts, R. E. Stratmann, 
 O. Yazyev, A. J. Austin, R. Cammi, C. Pomelli, J. W. Ochterski, 
 R. L. Martin, K. Morokuma, V. G. Zakrzewski, G. A. Voth, 
 P. Salvador, J. J. Dannenberg, S. Dapprich, A. D. Daniels, 
 O. Farkas, J. B. Foresman, J. V. Ortiz, J. Cioslowski, 
 and D. J. Fox, Gaussian, Inc., Wallingford CT, 2010.
 
 ******************************************
 Gaussian 09:  EM64L-G09RevB.01 12-Aug-2010
                26-Apr-2018 
 ******************************************
 %chk=H3O-term.chk
 %nprocshared=24
 Will use up to   24 processors via shared memory.
 ----------------------------------------------------------------------
 # scrf=(smd,solvent=water) opt=(ts,noeigen,calcfc) freq b3lyp/6-31++g(
 d,p)
 ----------------------------------------------------------------------
 1/5=1,10=4,11=1,14=-1,18=20,26=3,38=1/1,3;
 2/9=110,12=2,17=6,18=5,40=1/2;
 3/5=1,6=6,7=1111,11=2,16=1,25=1,30=1,70=32201,71=2,72=1,74=-5/1,2,3;
 4//1;
 5/5=2,38=5,53=1/2;
 8/6=4,10=90,11=11/1;
 11/6=1,8=1,9=11,15=111,16=1/1,2,10;
 10/6=1,7=6,13=1/2;
 6/7=2,8=2,9=2,10=2,28=1/1;
 7/10=1,18=20,25=1/1,2,3,16;
 1/5=1,10=4,11=1,14=-1,18=20/3(2);
 2/9=110/2;
 99//99;
 2/9=110/2;
 3/5=1,6=6,7=1111,11=2,16=1,25=1,30=1,70=32205,71=1,72=1,74=-5/1,2,3;
 4/5=5,16=3/1;
 5/5=2,38=5,53=1/2;
 7//1,2,3,16;
 1/5=1,11=1,14=-1,18=20/3(-5);
 2/9=110/2;
 6/7=2,8=2,9=2,10=2,19=2,28=1/1;
 99/9=1/99;
 -------------
 H3O-BACK-TERM
 -------------
 Symbolic Z-matrix:
 Charge =  1 Multiplicity = 1
 C
 C                    1    B1
 H                    1    B2       2    A1
 H                    2    B3       1    A2       3    D1       0
 H                    2    B4       1    A3       3    D2       0
 C                    1    B5       2    A4       4    D3       0
 H                    6    B6       1    A5       2    D4       0
 H                    6    B7       1    A6       2    D5       0
 H                    6    B8       1    A7       2    D6       0
 O                    1    B9       2    A8       6    D7       0
 H                    10   B10      1    A9       2    D8       0
 O                    2    B11      1    A10      10   D9       0
 H                    12   B12      2    A11      1    D10      0
 H                    12   B13      2    A12      1    D11      0
       Variables:
  B1                    1.47028                  
  B2                    1.09068                  
  B3                    1.08329                  
  B4                    1.08339                  
  B5                    1.5029                   
  B6                    1.0943                   
  B7                    1.09283                  
  B8                    1.09328                  
  B9                    1.48249                  
  B10                   0.97426                  
  B11                   2.09416                  
  B12                   0.97005                  
  B13                   0.97001                  
  A1                  114.88701                  
  A2                  118.71579                  
  A3                  120.32815                  
  A4                  120.55003                  
  A5                  109.16124                  
  A6                  109.94534                  
  A7                  111.32369                  
  A8                   78.34764                  
  A9                  111.63606                  
  A10                 104.5493                   
  A11                 118.95061                  
  A12                 119.98723                  
  D1                  174.3232                   
  D2                  -25.10957                  
  D3                   31.2524                   
  D4                   80.53195                  
  D5                 -160.78596                  
  D6                  -40.08733                  
  D7                 -108.62711                  
  D8                 -100.95161                  
  D9                 -176.8956                   
  D10                 115.67778                  
  D11                -109.82889                  
 

 GradGradGradGradGradGradGradGradGradGradGradGradGradGradGradGradGradGrad
 Berny optimization.
 Initialization pass.
                           ----------------------------
                           !    Initial Parameters    !
                           ! (Angstroms and Degrees)  !
 --------------------------                            --------------------------
 ! Name  Definition              Value          Derivative Info.                !
 --------------------------------------------------------------------------------
 ! R1    R(1,2)                  1.4703         calculate D2E/DX2 analytically  !
 ! R2    R(1,3)                  1.0907         calculate D2E/DX2 analytically  !
 ! R3    R(1,6)                  1.5029         calculate D2E/DX2 analytically  !
 ! R4    R(1,10)                 1.4825         calculate D2E/DX2 analytically  !
 ! R5    R(2,4)                  1.0833         calculate D2E/DX2 analytically  !
 ! R6    R(2,5)                  1.0834         calculate D2E/DX2 analytically  !
 ! R7    R(2,12)                 2.0942         calculate D2E/DX2 analytically  !
 ! R8    R(2,13)                 2.7006         calculate D2E/DX2 analytically  !
 ! R9    R(2,14)                 2.7124         calculate D2E/DX2 analytically  !
 ! R10   R(4,12)                 2.3766         calculate D2E/DX2 analytically  !
 ! R11   R(5,12)                 2.3741         calculate D2E/DX2 analytically  !
 ! R12   R(6,7)                  1.0943         calculate D2E/DX2 analytically  !
 ! R13   R(6,8)                  1.0928         calculate D2E/DX2 analytically  !
 ! R14   R(6,9)                  1.0933         calculate D2E/DX2 analytically  !
 ! R15   R(10,11)                0.9743         calculate D2E/DX2 analytically  !
 ! R16   R(12,13)                0.9701         calculate D2E/DX2 analytically  !
 ! R17   R(12,14)                0.97           calculate D2E/DX2 analytically  !
 ! A1    A(2,1,3)              114.887          calculate D2E/DX2 analytically  !
 ! A2    A(2,1,6)              120.55           calculate D2E/DX2 analytically  !
 ! A3    A(2,1,10)              78.3476         calculate D2E/DX2 analytically  !
 ! A4    A(3,1,6)              114.2415         calculate D2E/DX2 analytically  !
 ! A5    A(3,1,10)             111.3456         calculate D2E/DX2 analytically  !
 ! A6    A(6,1,10)             111.8428         calculate D2E/DX2 analytically  !
 ! A7    A(1,2,4)              118.7158         calculate D2E/DX2 analytically  !
 ! A8    A(1,2,5)              120.3282         calculate D2E/DX2 analytically  !
 ! A9    A(1,2,12)             104.5493         calculate D2E/DX2 analytically  !
 ! A10   A(1,2,13)             111.7347         calculate D2E/DX2 analytically  !
 ! A11   A(1,2,14)             109.911          calculate D2E/DX2 analytically  !
 ! A12   A(4,2,5)              118.1159         calculate D2E/DX2 analytically  !
 ! A13   A(4,2,13)              72.8664         calculate D2E/DX2 analytically  !
 ! A14   A(4,2,14)             102.5963         calculate D2E/DX2 analytically  !
 ! A15   A(5,2,13)             100.6792         calculate D2E/DX2 analytically  !
 ! A16   A(5,2,14)              73.3273         calculate D2E/DX2 analytically  !
 ! A17   A(13,2,14)             33.4469         calculate D2E/DX2 analytically  !
 ! A18   A(1,6,7)              109.1612         calculate D2E/DX2 analytically  !
 ! A19   A(1,6,8)              109.9453         calculate D2E/DX2 analytically  !
 ! A20   A(1,6,9)              111.3237         calculate D2E/DX2 analytically  !
 ! A21   A(7,6,8)              108.3125         calculate D2E/DX2 analytically  !
 ! A22   A(7,6,9)              109.1973         calculate D2E/DX2 analytically  !
 ! A23   A(8,6,9)              108.8446         calculate D2E/DX2 analytically  !
 ! A24   A(1,10,11)            111.6361         calculate D2E/DX2 analytically  !
 ! A25   A(4,12,5)              46.0546         calculate D2E/DX2 analytically  !
 ! A26   A(4,12,13)             91.9078         calculate D2E/DX2 analytically  !
 ! A27   A(4,12,14)            134.343          calculate D2E/DX2 analytically  !
 ! A28   A(5,12,13)            130.2181         calculate D2E/DX2 analytically  !
 ! A29   A(5,12,14)             93.3287         calculate D2E/DX2 analytically  !
 ! A30   A(13,12,14)           106.8115         calculate D2E/DX2 analytically  !
 ! D1    D(3,1,2,4)            174.3232         calculate D2E/DX2 analytically  !
 ! D2    D(3,1,2,5)            -25.1096         calculate D2E/DX2 analytically  !
 ! D3    D(3,1,2,12)            74.8023         calculate D2E/DX2 analytically  !
 ! D4    D(3,1,2,13)            92.5577         calculate D2E/DX2 analytically  !
 ! D5    D(3,1,2,14)            56.7484         calculate D2E/DX2 analytically  !
 ! D6    D(6,1,2,4)             31.2524         calculate D2E/DX2 analytically  !
 ! D7    D(6,1,2,5)           -168.1804         calculate D2E/DX2 analytically  !
 ! D8    D(6,1,2,12)           -68.2685         calculate D2E/DX2 analytically  !
 ! D9    D(6,1,2,13)           -50.5131         calculate D2E/DX2 analytically  !
 ! D10   D(6,1,2,14)           -86.3224         calculate D2E/DX2 analytically  !
 ! D11   D(10,1,2,4)           -77.3747         calculate D2E/DX2 analytically  !
 ! D12   D(10,1,2,5)            83.1925         calculate D2E/DX2 analytically  !
 ! D13   D(10,1,2,12)         -176.8956         calculate D2E/DX2 analytically  !
 ! D14   D(10,1,2,13)         -159.1402         calculate D2E/DX2 analytically  !
 ! D15   D(10,1,2,14)          165.0505         calculate D2E/DX2 analytically  !
 ! D16   D(2,1,6,7)             80.532          calculate D2E/DX2 analytically  !
 ! D17   D(2,1,6,8)           -160.786          calculate D2E/DX2 analytically  !
 ! D18   D(2,1,6,9)            -40.0873         calculate D2E/DX2 analytically  !
 ! D19   D(3,1,6,7)            -62.7597         calculate D2E/DX2 analytically  !
 ! D20   D(3,1,6,8)             55.9223         calculate D2E/DX2 analytically  !
 ! D21   D(3,1,6,9)            176.621          calculate D2E/DX2 analytically  !
 ! D22   D(10,1,6,7)           169.6103         calculate D2E/DX2 analytically  !
 ! D23   D(10,1,6,8)           -71.7076         calculate D2E/DX2 analytically  !
 ! D24   D(10,1,6,9)            48.991          calculate D2E/DX2 analytically  !
 ! D25   D(2,1,10,11)         -100.9516         calculate D2E/DX2 analytically  !
 ! D26   D(3,1,10,11)           11.4279         calculate D2E/DX2 analytically  !
 ! D27   D(6,1,10,11)          140.5936         calculate D2E/DX2 analytically  !
 ! D28   D(5,4,12,2)            33.9708         calculate D2E/DX2 analytically  !
 ! D29   D(13,4,12,2)         -176.1241         calculate D2E/DX2 analytically  !
 ! D30   D(14,4,12,2)           67.9511         calculate D2E/DX2 analytically  !
 ! D31   D(13,5,12,2)          -74.9428         calculate D2E/DX2 analytically  !
 ! D32   D(14,5,12,2)          169.6791         calculate D2E/DX2 analytically  !
 ! D33   D(2,12,13,14)         139.8023         calculate D2E/DX2 analytically  !
 --------------------------------------------------------------------------------
 Trust Radius=3.00D-01 FncErr=1.00D-07 GrdErr=1.00D-06
 Number of steps in this run=     90 maximum allowed number of steps=    100.
 Search for a saddle point of order  1.
 GradGradGradGradGradGradGradGradGradGradGradGradGradGradGradGradGradGrad

                          Input orientation:                          
 ---------------------------------------------------------------------
 Center     Atomic      Atomic             Coordinates (Angstroms)
 Number     Number       Type             X           Y           Z
 ---------------------------------------------------------------------
      1          6           0        0.000000    0.000000    0.000000
      2          6           0        0.000000    0.000000    1.470276
      3          1           0        0.989399    0.000000   -0.458991
      4          1           0       -0.945400    0.093977    1.990759
      5          1           0        0.846756   -0.396822    2.017337
      6          6           0       -1.034614    0.777635   -0.763908
      7          1           0       -0.738367    1.830454   -0.800042
      8          1           0       -1.100223    0.404023   -1.788795
      9          1           0       -2.018925    0.697041   -0.294973
     10          8           0       -0.455949   -1.378493    0.299424
     11          1           0        0.266808   -2.024714    0.203473
     12          8           0        0.531380    1.956112    1.996356
     13          1           0       -0.111947    2.506099    2.470328
     14          1           0        1.398339    2.132691    2.394003
 ---------------------------------------------------------------------
                    Distance matrix (angstroms):
                    1          2          3          4          5
     1  C    0.000000
     2  C    1.470276   0.000000
     3  H    1.090681   2.168175   0.000000
     4  H    2.205841   1.083289   3.123069   0.000000
     5  H    2.223536   1.083393   2.511975   1.858337   0.000000
     6  C    1.502896   2.581999   2.189594   2.839637   3.557278
     7  H    2.129745   3.008337   2.540089   3.293446   3.925685
     8  H    2.138577   3.463419   2.509608   3.795409   4.349566
     9  H    2.156138   2.770926   3.092375   2.596288   3.841282
    10  O    1.482494   1.865215   2.136462   2.295288   2.368955
    11  H    2.052329   2.403216   2.249548   3.025342   2.505290
    12  O    2.845027   2.094159   3.172521   2.376649   2.374069
    13  H    3.520737   2.700587   4.009290   2.596722   3.090512
    14  H    3.497853   2.712378   3.585412   3.132424   2.616211
                    6          7          8          9         10
     6  C    0.000000
     7  H    1.094301   0.000000
     8  H    1.092833   1.772928   0.000000
     9  H    1.093281   1.783129   1.778025   0.000000
    10  O    2.472735   3.403810   2.820126   2.665341   0.000000
    11  H    3.237698   4.108496   3.425883   3.589008   0.974262
    12  O    3.385292   3.073741   4.404370   3.652328   3.869624
    13  H    3.781426   3.397679   4.851344   3.815252   4.463320
    14  H    4.210444   3.854709   5.169807   4.579234   4.489328
                   11         12         13         14
    11  H    0.000000
    12  O    4.373947   0.000000
    13  H    5.080390   0.970054   0.000000
    14  H    4.833509   0.970012   1.557634   0.000000
 Stoichiometry    C3H9O2(1+)
 Framework group  C1[X(C3H9O2)]
 Deg. of freedom    36
 Full point group                 C1      NOp   1
 Largest Abelian subgroup         C1      NOp   1
 Largest concise Abelian subgroup C1      NOp   1
                         Standard orientation:                         
 ---------------------------------------------------------------------
 Center     Atomic      Atomic             Coordinates (Angstroms)
 Number     Number       Type             X           Y           Z
 ---------------------------------------------------------------------
      1          6           0        0.614536    0.102908    0.432276
      2          6           0       -0.344167   -0.791218   -0.233411
      3          1           0        0.612251    0.049078    1.521625
      4          1           0       -0.460628   -0.722023   -1.308197
      5          1           0       -0.683502   -1.694165    0.259822
      6          6           0        0.888166    1.474740   -0.117179
      7          1           0        0.090561    2.153968    0.199003
      8          1           0        1.835810    1.851472    0.275666
      9          1           0        0.938365    1.462866   -1.209242
     10          8           0        1.515223   -0.916843   -0.156501
     11          1           0        1.806097   -1.566334    0.508886
     12          8           0       -2.207105    0.116424    0.068496
     13          1           0       -2.701875    0.440107   -0.700553
     14          1           0       -2.853228   -0.290198    0.666916
 ---------------------------------------------------------------------
 Rotational constants (GHZ):      6.8168754      3.0673865      2.3169615
 Standard basis: 6-31++G(d,p) (6D, 7F)
 There are   149 symmetry adapted basis functions of A   symmetry.
 Integral buffers will be    131072 words long.
 Raffenetti 2 integral format.
 Two-electron integral symmetry is turned on.
   149 basis functions,   232 primitive gaussians,   149 cartesian basis functions
    21 alpha electrons       21 beta electrons
       nuclear repulsion energy       194.4997220545 Hartrees.
 NAtoms=   14 NActive=   14 NUniq=   14 SFac= 1.00D+00 NAtFMM=   50 NAOKFM=F Big=F
 ------------------------------------------------------------------------------
 Polarizable Continuum Model (PCM)
 =================================
 Model                : PCM.
 Atomic radii         : SMD-Coulomb.
 Polarization charges : Total charges.
 Charge compensation  : None.
 Solution method      : Matrix inversion.
 Cavity type          : VdW (van der Waals Surface) (Alpha=1.000).
 Cavity algorithm     : GePol (No added spheres)
                        Default sphere list used, NSphG=   14.
                        Lebedev-Laikov grids with approx.  5.0 points / Ang**2.
                        Smoothing algorithm: Karplus/York (Gamma=1.0000).
                        Polarization charges: spherical gaussians, with
                                              point-specific exponents (IZeta= 3).
                        Self-potential: point-specific (ISelfS= 7).
                        Self-field    : sphere-specific E.n sum rule (ISelfD= 2).
 1st derivatives      : Analytical E(r).r(x)/FMM algorithm (CHGder, D1EAlg=3).
                        Cavity 1st derivative terms included.
 2nd derivatives      : Analytical E(r).r(xy)/FMM algorithm (CHGder, D2EAlg=3).
                        Cavity 2nd derivative terms included.
 Solvent              : Water, Eps=  78.355300 Eps(inf)=   1.777849
 ------------------------------------------------------------------------------
 Spheres list:
 ISph  on   Nord    Re0     Alpha      Xe            Ye            Ze
    1   C      1    1.850   1.000      0.614536      0.102908      0.432276
    2   C      2    1.850   1.000     -0.344167     -0.791218     -0.233411
    3   H      3    1.200   1.000      0.612251      0.049078      1.521625
    4   H      4    1.200   1.000     -0.460628     -0.722023     -1.308197
    5   H      5    1.200   1.000     -0.683502     -1.694165      0.259822
    6   C      6    1.850   1.000      0.888166      1.474740     -0.117179
    7   H      7    1.200   1.000      0.090561      2.153968      0.199003
    8   H      8    1.200   1.000      1.835810      1.851472      0.275666
    9   H      9    1.200   1.000      0.938365      1.462866     -1.209242
   10   O     10    1.520   1.000      1.515223     -0.916843     -0.156501
   11   H     11    1.200   1.000      1.806097     -1.566334      0.508886
   12   O     12    1.520   1.000     -2.207105      0.116424      0.068496
   13   H     13    1.200   1.000     -2.701875      0.440107     -0.700553
   14   H     14    1.200   1.000     -2.853228     -0.290198      0.666916
 ------------------------------------------------------------------------------
 ------------------------------------------------------------------------------
 Atomic radii for non-electrostatic terms: SMD-CDS.
 ------------------------------------------------------------------------------
 Nuclear repulsion after PCM non-electrostatic terms =      194.5059441820 Hartrees.
 One-electron integrals computed using PRISM.
 PrsmSu:  requested number of processors reduced to:  10 ShMem   1 Linda.
 NBasis=   149 RedAO= T  NBF=   149
 NBsUse=   149 1.00D-06 NBFU=   149
 Harris functional with IExCor=  402 diagonalized for initial guess.
 ExpMin= 3.60D-02 ExpMax= 5.48D+03 ExpMxC= 8.25D+02 IAcc=3 IRadAn=         0 AccDes= 0.00D+00
 HarFok:  IExCor=  402 AccDes= 0.00D+00 IRadAn=         0 IDoV= 1
 ScaDFX=  1.000000  1.000000  1.000000  1.000000
 FoFCou: FMM=F IPFlag=           0 FMFlag=      100000 FMFlg1=           0
         NFxFlg=           0 DoJE=T BraDBF=F KetDBF=T FulRan=T
         Omega=  0.000000  0.000000  1.000000  0.000000  0.000000 ICntrl=     500 IOpCl=  0
         NMat0=    1 NMatS0=    1 NMatT0=    0 NMatD0=    1 NMtDS0=    0 NMtDT0=    0
         I1Cent=           4 NGrid=           0.
 Petite list used in FoFCou.
 Initial guess orbital symmetries:
       Occupied  (A) (A) (A) (A) (A) (A) (A) (A) (A) (A) (A) (A)
                 (A) (A) (A) (A) (A) (A) (A) (A) (A)
       Virtual   (A) (A) (A) (A) (A) (A) (A) (A) (A) (A) (A) (A)
                 (A) (A) (A) (A) (A) (A) (A) (A) (A) (A) (A) (A)
                 (A) (A) (A) (A) (A) (A) (A) (A) (A) (A) (A) (A)
                 (A) (A) (A) (A) (A) (A) (A) (A) (A) (A) (A) (A)
                 (A) (A) (A) (A) (A) (A) (A) (A) (A) (A) (A) (A)
                 (A) (A) (A) (A) (A) (A) (A) (A) (A) (A) (A) (A)
                 (A) (A) (A) (A) (A) (A) (A) (A) (A) (A) (A) (A)
                 (A) (A) (A) (A) (A) (A) (A) (A) (A) (A) (A) (A)
                 (A) (A) (A) (A) (A) (A) (A) (A) (A) (A) (A) (A)
                 (A) (A) (A) (A) (A) (A) (A) (A) (A) (A) (A) (A)
                 (A) (A) (A) (A) (A) (A) (A) (A)
 The electronic state of the initial guess is 1-A.
 Requested convergence on RMS density matrix=1.00D-08 within 128 cycles.
 Requested convergence on MAX density matrix=1.00D-06.
 Requested convergence on             energy=1.00D-06.
 No special actions if energy rises.
 CoulSu:  requested number of processors reduced to:  14 ShMem   1 Linda.
 CoulSu:  requested number of processors reduced to:  14 ShMem   1 Linda.
 CoulSu:  requested number of processors reduced to:  15 ShMem   1 Linda.
 CoulSu:  requested number of processors reduced to:  15 ShMem   1 Linda.
 CoulSu:  requested number of processors reduced to:  15 ShMem   1 Linda.
 CoulSu:  requested number of processors reduced to:  15 ShMem   1 Linda.
 CoulSu:  requested number of processors reduced to:  15 ShMem   1 Linda.
 CoulSu:  requested number of processors reduced to:  15 ShMem   1 Linda.
 CoulSu:  requested number of processors reduced to:  15 ShMem   1 Linda.
 CoulSu:  requested number of processors reduced to:  15 ShMem   1 Linda.
 CoulSu:  requested number of processors reduced to:  15 ShMem   1 Linda.
 CoulSu:  requested number of processors reduced to:  15 ShMem   1 Linda.
 CoulSu:  requested number of processors reduced to:  15 ShMem   1 Linda.
 CoulSu:  requested number of processors reduced to:  15 ShMem   1 Linda.
 CoulSu:  requested number of processors reduced to:  15 ShMem   1 Linda.
 Error on total polarization charges =  0.03575
 SCF Done:  E(RB3LYP) =  -269.994088622     A.U. after   12 cycles
             Convg  =    0.1890D-08             -V/T =  2.0101
 SMD-CDS (non-electrostatic) energy       (kcal/mol) =       3.90
 (included in total energy above)
 Range of M.O.s used for correlation:     1   149
 NBasis=   149 NAE=    21 NBE=    21 NFC=     0 NFV=     0
 NROrb=    149 NOA=    21 NOB=    21 NVA=   128 NVB=   128

 **** Warning!!: The largest alpha MO coefficient is  0.35717766D+02

 PrsmSu:  requested number of processors reduced to:  10 ShMem   1 Linda.
 PrsmSu:  requested number of processors reduced to:  17 ShMem   1 Linda.
 Symmetrizing basis deriv contribution to polar:
 IMax=3 JMax=2 DiffMx= 0.00D+00
 G2DrvN: will do     3 centers at a time, making    5 passes doing MaxLOS=2.
 Estimated number of processors is:   15
 Calling FoFCou, ICntrl=  3107 FMM=F I1Cent=   0 AccDes= 0.00D+00.
 CoulSu:  requested number of processors reduced to:  15 ShMem   1 Linda.
 Calling FoFCou, ICntrl=  3107 FMM=F I1Cent=   0 AccDes= 0.00D+00.
 CoulSu:  requested number of processors reduced to:  15 ShMem   1 Linda.
 Calling FoFCou, ICntrl=  3107 FMM=F I1Cent=   0 AccDes= 0.00D+00.
 CoulSu:  requested number of processors reduced to:  15 ShMem   1 Linda.
 Calling FoFCou, ICntrl=  3107 FMM=F I1Cent=   0 AccDes= 0.00D+00.
 CoulSu:  requested number of processors reduced to:  15 ShMem   1 Linda.
 Calling FoFCou, ICntrl=  3107 FMM=F I1Cent=   0 AccDes= 0.00D+00.
 CoulSu:  requested number of processors reduced to:  15 ShMem   1 Linda.
 FoFDir/FoFCou used for L=0 through L=2.
 G2PCM: DoFxE=T DoFxN=T DoGrad=T DoPD/DQ/DG=FFF NFrqRd=   0 IEInf=0 DoCFld=F IF1Alg=4.
 CoulSu:  requested number of processors reduced to:  22 ShMem   1 Linda.
 CoulSu:  requested number of processors reduced to:  22 ShMem   1 Linda.
 CoulSu:  requested number of processors reduced to:  23 ShMem   1 Linda.
 CoulSu:  requested number of processors reduced to:  15 ShMem   1 Linda.
 CoulSu:  requested number of processors reduced to:  10 ShMem   1 Linda.
 CoulSu:  requested number of processors reduced to:  22 ShMem   1 Linda.
 CoulSu:  requested number of processors reduced to:  22 ShMem   1 Linda.
 CoulSu:  requested number of processors reduced to:  15 ShMem   1 Linda.
 CoulSu:  requested number of processors reduced to:  23 ShMem   1 Linda.
 CoulSu:  requested number of processors reduced to:  23 ShMem   1 Linda.
 CoulSu:  requested number of processors reduced to:  11 ShMem   1 Linda.
 CoulSu:  requested number of processors reduced to:  15 ShMem   1 Linda.
 CoulSu:  requested number of processors reduced to:  22 ShMem   1 Linda.
 CoulSu:  requested number of processors reduced to:  22 ShMem   1 Linda.
 CoulSu:  requested number of processors reduced to:  22 ShMem   1 Linda.
 CoulSu:  requested number of processors reduced to:  22 ShMem   1 Linda.
 CoulSu:  requested number of processors reduced to:  22 ShMem   1 Linda.
 CoulSu:  requested number of processors reduced to:  22 ShMem   1 Linda.
 CoulSu:  requested number of processors reduced to:  22 ShMem   1 Linda.
 CoulSu:  requested number of processors reduced to:  22 ShMem   1 Linda.
 CoulSu:  requested number of processors reduced to:  22 ShMem   1 Linda.
 CoulSu:  requested number of processors reduced to:  22 ShMem   1 Linda.
 CoulSu:  requested number of processors reduced to:  22 ShMem   1 Linda.
 CoulSu:  requested number of processors reduced to:  22 ShMem   1 Linda.
 CoulSu:  requested number of processors reduced to:  22 ShMem   1 Linda.
 CoulSu:  requested number of processors reduced to:  22 ShMem   1 Linda.
 CoulSu:  requested number of processors reduced to:  22 ShMem   1 Linda.
 CoulSu:  requested number of processors reduced to:  22 ShMem   1 Linda.
 CoulSu:  requested number of processors reduced to:  22 ShMem   1 Linda.
 CoulSu:  requested number of processors reduced to:  22 ShMem   1 Linda.
 CoulSu:  requested number of processors reduced to:  22 ShMem   1 Linda.
 CoulSu:  requested number of processors reduced to:  22 ShMem   1 Linda.
 CoulSu:  requested number of processors reduced to:  22 ShMem   1 Linda.
 CoulSu:  requested number of processors reduced to:  22 ShMem   1 Linda.
 CoulSu:  requested number of processors reduced to:  22 ShMem   1 Linda.
 CoulSu:  requested number of processors reduced to:  22 ShMem   1 Linda.
 CoulSu:  requested number of processors reduced to:  22 ShMem   1 Linda.
 CoulSu:  requested number of processors reduced to:  22 ShMem   1 Linda.
 CoulSu:  requested number of processors reduced to:  22 ShMem   1 Linda.
 CoulSu:  requested number of processors reduced to:  22 ShMem   1 Linda.
 CoulSu:  requested number of processors reduced to:  15 ShMem   1 Linda.
 CoulSu:  requested number of processors reduced to:  22 ShMem   1 Linda.
 CoulSu:  requested number of processors reduced to:  22 ShMem   1 Linda.
 CoulSu:  requested number of processors reduced to:  15 ShMem   1 Linda.
 CoulSu:  requested number of processors reduced to:  10 ShMem   1 Linda.
 CoulSu:  requested number of processors reduced to:  10 ShMem   1 Linda.
 CoulSu:  requested number of processors reduced to:  22 ShMem   1 Linda.
 CoulSu:  requested number of processors reduced to:  22 ShMem   1 Linda.
 CoulSu:  requested number of processors reduced to:  22 ShMem   1 Linda.
 CoulSu:  requested number of processors reduced to:  22 ShMem   1 Linda.
 CoulSu:  requested number of processors reduced to:  15 ShMem   1 Linda.
 CoulSu:  requested number of processors reduced to:  10 ShMem   1 Linda.
 CoulSu:  requested number of processors reduced to:  10 ShMem   1 Linda.
 CoulSu:  requested number of processors reduced to:  22 ShMem   1 Linda.
 CoulSu:  requested number of processors reduced to:  22 ShMem   1 Linda.
 End of G2Drv Frequency-dependent properties file   721 does not exist.
 End of G2Drv Frequency-dependent properties file   722 does not exist.
          IDoAtm=11111111111111
 NEqPCM:  Using equilibrium solvation (IEInf=0, Eps=  78.3553, EpsInf=   1.7778)
          Differentiating once with respect to nuclear coordinates.
 PrRfSu:  requested number of processors reduced to:  16 ShMem   1 Linda.
 CalDSu:  requested number of processors reduced to:  21 ShMem   1 Linda.
 PrRfSu:  requested number of processors reduced to:  16 ShMem   1 Linda.
 CalDSu:  requested number of processors reduced to:  21 ShMem   1 Linda.
          There are    45 degrees of freedom in the 1st order CPHF.  IDoFFX=5.
     39 vectors produced by pass  0 Test12= 5.97D-11 2.22D-07 XBig12= 1.18D-01 1.77D-01.
 AX will form    20 AO Fock derivatives at one time.
 PrRfSu:  requested number of processors reduced to:  16 ShMem   1 Linda.
 CalDSu:  requested number of processors reduced to:  22 ShMem   1 Linda.
 PrRfSu:  requested number of processors reduced to:  16 ShMem   1 Linda.
 CalDSu:  requested number of processors reduced to:  22 ShMem   1 Linda.
     39 vectors produced by pass  1 Test12= 5.97D-11 2.22D-07 XBig12= 1.88D-02 2.52D-02.
 PrRfSu:  requested number of processors reduced to:  16 ShMem   1 Linda.
 CalDSu:  requested number of processors reduced to:  22 ShMem   1 Linda.
 PrRfSu:  requested number of processors reduced to:  16 ShMem   1 Linda.
 CalDSu:  requested number of processors reduced to:  22 ShMem   1 Linda.
     39 vectors produced by pass  2 Test12= 5.97D-11 2.22D-07 XBig12= 3.19D-04 3.15D-03.
 PrRfSu:  requested number of processors reduced to:  16 ShMem   1 Linda.
 CalDSu:  requested number of processors reduced to:  22 ShMem   1 Linda.
 PrRfSu:  requested number of processors reduced to:  16 ShMem   1 Linda.
 CalDSu:  requested number of processors reduced to:  22 ShMem   1 Linda.
     39 vectors produced by pass  3 Test12= 5.97D-11 2.22D-07 XBig12= 7.55D-07 1.20D-04.
 PrRfSu:  requested number of processors reduced to:  16 ShMem   1 Linda.
 CalDSu:  requested number of processors reduced to:  22 ShMem   1 Linda.
 PrRfSu:  requested number of processors reduced to:  16 ShMem   1 Linda.
 CalDSu:  requested number of processors reduced to:  22 ShMem   1 Linda.
     12 vectors produced by pass  4 Test12= 5.97D-11 2.22D-07 XBig12= 1.06D-09 4.03D-06.
 PrRfSu:  requested number of processors reduced to:  17 ShMem   1 Linda.
 CalDSu:  requested number of processors reduced to:  23 ShMem   1 Linda.
 Inverted reduced A of dimension   168 with in-core refinement.
 End of Minotr Frequency-dependent properties file   721 does not exist.
 End of Minotr Frequency-dependent properties file   722 does not exist.

 **********************************************************************

            Population analysis using the SCF density.

 **********************************************************************

 Orbital symmetries:
       Occupied  (A) (A) (A) (A) (A) (A) (A) (A) (A) (A) (A) (A)
                 (A) (A) (A) (A) (A) (A) (A) (A) (A)
       Virtual   (A) (A) (A) (A) (A) (A) (A) (A) (A) (A) (A) (A)
                 (A) (A) (A) (A) (A) (A) (A) (A) (A) (A) (A) (A)
                 (A) (A) (A) (A) (A) (A) (A) (A) (A) (A) (A) (A)
                 (A) (A) (A) (A) (A) (A) (A) (A) (A) (A) (A) (A)
                 (A) (A) (A) (A) (A) (A) (A) (A) (A) (A) (A) (A)
                 (A) (A) (A) (A) (A) (A) (A) (A) (A) (A) (A) (A)
                 (A) (A) (A) (A) (A) (A) (A) (A) (A) (A) (A) (A)
                 (A) (A) (A) (A) (A) (A) (A) (A) (A) (A) (A) (A)
                 (A) (A) (A) (A) (A) (A) (A) (A) (A) (A) (A) (A)
                 (A) (A) (A) (A) (A) (A) (A) (A) (A) (A) (A) (A)
                 (A) (A) (A) (A) (A) (A) (A) (A)
 The electronic state is 1-A.
 Alpha  occ. eigenvalues --  -19.22939 -19.19897 -10.30022 -10.28140 -10.18990
 Alpha  occ. eigenvalues --   -1.08793  -1.04413  -0.80926  -0.72406  -0.61977
 Alpha  occ. eigenvalues --   -0.57481  -0.55859  -0.48677  -0.47749  -0.44317
 Alpha  occ. eigenvalues --   -0.42459  -0.41074  -0.38800  -0.37362  -0.35585
 Alpha  occ. eigenvalues --   -0.33845
 Alpha virt. eigenvalues --   -0.06359  -0.01048   0.01337   0.01662   0.02401
 Alpha virt. eigenvalues --    0.03817   0.04788   0.04972   0.05627   0.06544
 Alpha virt. eigenvalues --    0.08155   0.09319   0.10482   0.11012   0.11577
 Alpha virt. eigenvalues --    0.12633   0.13614   0.14176   0.14593   0.15105
 Alpha virt. eigenvalues --    0.15618   0.16780   0.17986   0.19177   0.19690
 Alpha virt. eigenvalues --    0.20478   0.21834   0.22513   0.23505   0.24263
 Alpha virt. eigenvalues --    0.24960   0.27797   0.27950   0.30166   0.30950
 Alpha virt. eigenvalues --    0.33188   0.33469   0.36127   0.37402   0.38155
 Alpha virt. eigenvalues --    0.39121   0.42289   0.61789   0.64688   0.65652
 Alpha virt. eigenvalues --    0.72026   0.74855   0.76196   0.78712   0.84453
 Alpha virt. eigenvalues --    0.88679   0.94353   0.95238   0.97150   0.98856
 Alpha virt. eigenvalues --    1.00436   1.00905   1.02962   1.08379   1.12692
 Alpha virt. eigenvalues --    1.13945   1.16103   1.18483   1.19616   1.22552
 Alpha virt. eigenvalues --    1.23333   1.26408   1.28514   1.32002   1.39285
 Alpha virt. eigenvalues --    1.49169   1.50848   1.53191   1.55363   1.58709
 Alpha virt. eigenvalues --    1.59185   1.65982   1.67347   1.74997   1.80223
 Alpha virt. eigenvalues --    1.84301   1.87893   1.95785   1.99219   2.04419
 Alpha virt. eigenvalues --    2.05093   2.08118   2.10166   2.12653   2.17296
 Alpha virt. eigenvalues --    2.23951   2.27134   2.28785   2.31584   2.36619
 Alpha virt. eigenvalues --    2.42177   2.48219   2.49587   2.50849   2.53236
 Alpha virt. eigenvalues --    2.56257   2.62922   2.63876   2.64624   2.68250
 Alpha virt. eigenvalues --    2.69633   2.72403   2.76854   2.81615   2.85271
 Alpha virt. eigenvalues --    2.88253   2.93340   3.00602   3.03705   3.25584
 Alpha virt. eigenvalues --    3.31597   3.36327   3.42461   3.45190   3.47029
 Alpha virt. eigenvalues --    3.47118   3.53543   3.55445   4.28488   4.33054
 Alpha virt. eigenvalues --    4.37961   4.52625   4.64106
          Condensed to atoms (all electrons):
              1          2          3          4          5          6
     1  C    6.262508  -0.092030   0.358284  -0.072181   0.003853  -0.361360
     2  C   -0.092030   5.594867  -0.015254   0.398755   0.355917  -0.037259
     3  H    0.358284  -0.015254   0.494946   0.004587  -0.010817  -0.033193
     4  H   -0.072181   0.398755   0.004587   0.424247  -0.029135   0.012474
     5  H    0.003853   0.355917  -0.010817  -0.029135   0.439737   0.003993
     6  C   -0.361360  -0.037259  -0.033193   0.012474   0.003993   5.705530
     7  H   -0.073917  -0.000465  -0.004290  -0.000949   0.001332   0.430554
     8  H   -0.038771   0.012554  -0.006679   0.000588  -0.000847   0.398329
     9  H   -0.051694  -0.011742   0.005624   0.007213  -0.000890   0.411004
    10  O    0.061045  -0.079671  -0.016916  -0.010386  -0.003150   0.000534
    11  H    0.022450  -0.025895  -0.006958   0.001129  -0.001653  -0.001712
    12  O   -0.219096   0.101580  -0.002909  -0.008125  -0.014455   0.048183
    13  H    0.031094  -0.012016   0.000836  -0.000481   0.000326  -0.014892
    14  H    0.010032  -0.012565   0.000334   0.001299  -0.000663   0.001264
              7          8          9         10         11         12
     1  C   -0.073917  -0.038771  -0.051694   0.061045   0.022450  -0.219096
     2  C   -0.000465   0.012554  -0.011742  -0.079671  -0.025895   0.101580
     3  H   -0.004290  -0.006679   0.005624  -0.016916  -0.006958  -0.002909
     4  H   -0.000949   0.000588   0.007213  -0.010386   0.001129  -0.008125
     5  H    0.001332  -0.000847  -0.000890  -0.003150  -0.001653  -0.014455
     6  C    0.430554   0.398329   0.411004   0.000534  -0.001712   0.048183
     7  H    0.487304  -0.019338  -0.021231   0.008554  -0.000932   0.010884
     8  H   -0.019338   0.493020  -0.024874  -0.006903   0.000200  -0.003413
     9  H   -0.021231  -0.024874   0.488440   0.005432   0.000131  -0.000433
    10  O    0.008554  -0.006903   0.005432   8.207732   0.243461   0.022710
    11  H   -0.000932   0.000200   0.000131   0.243461   0.293640   0.000706
    12  O    0.010884  -0.003413  -0.000433   0.022710   0.000706   8.182362
    13  H   -0.001490   0.000278  -0.000123  -0.001421  -0.000239   0.275964
    14  H   -0.000897   0.000309  -0.000167   0.000307   0.000068   0.282053
             13         14
     1  C    0.031094   0.010032
     2  C   -0.012016  -0.012565
     3  H    0.000836   0.000334
     4  H   -0.000481   0.001299
     5  H    0.000326  -0.000663
     6  C   -0.014892   0.001264
     7  H   -0.001490  -0.000897
     8  H    0.000278   0.000309
     9  H   -0.000123  -0.000167
    10  O   -0.001421   0.000307
    11  H   -0.000239   0.000068
    12  O    0.275964   0.282053
    13  H    0.298340  -0.014731
    14  H   -0.014731   0.293302
 Mulliken atomic charges:
              1
     1  C    0.159784
     2  C   -0.176775
     3  H    0.232404
     4  H    0.270967
     5  H    0.256453
     6  C   -0.563448
     7  H    0.184881
     8  H    0.195548
     9  H    0.193311
    10  O   -0.431327
    11  H    0.475603
    12  O   -0.676011
    13  H    0.438556
    14  H    0.440055
 Sum of Mulliken atomic charges =   1.00000
 Mulliken charges with hydrogens summed into heavy atoms:
              1
     1  C    0.392188
     2  C    0.350645
     6  C    0.010291
    10  O    0.044276
    12  O    0.202600
 Sum of Mulliken charges with hydrogens summed into heavy atoms =   1.00000
 APT atomic charges:
              1
     1  C   -0.156349
     2  C   -0.535008
     3  H    0.462413
     4  H    0.470846
     5  H    0.556678
     6  C   -1.252854
     7  H    0.393228
     8  H    0.540621
     9  H    0.375666
    10  O   -0.805120
    11  H    0.794881
    12  O   -1.481295
    13  H    0.779751
    14  H    0.856540
 Sum of APT charges=   1.00000
 APT Atomic charges with hydrogens summed into heavy atoms:
              1
     1  C    0.306064
     2  C    0.492517
     3  H    0.000000
     4  H    0.000000
     5  H    0.000000
     6  C    0.056662
     7  H    0.000000
     8  H    0.000000
     9  H    0.000000
    10  O   -0.010239
    11  H    0.000000
    12  O    0.154996
    13  H    0.000000
    14  H    0.000000
 Sum of APT charges=   1.00000
 Electronic spatial extent (au):  <R**2>=            537.2548
 Charge=              1.0000 electrons
 Dipole moment (field-independent basis, Debye):
    X=             -3.7507    Y=             -2.7174    Z=              1.4293  Tot=              4.8472
 Quadrupole moment (field-independent basis, Debye-Ang):
   XX=            -11.9953   YY=            -23.3948   ZZ=            -25.6961
   XY=             -0.3273   XZ=              4.6831   YZ=             -3.7044
 Traceless Quadrupole moment (field-independent basis, Debye-Ang):
   XX=              8.3668   YY=             -3.0328   ZZ=             -5.3340
   XY=             -0.3273   XZ=              4.6831   YZ=             -3.7044
 Octapole moment (field-independent basis, Debye-Ang**2):
  XXX=            -55.0388  YYY=            -13.5810  ZZZ=              0.5426  XYY=              3.9372
  XXY=             -7.9223  XXZ=              6.1409  XZZ=             -6.5447  YZZ=             -3.0001
  YYZ=              4.4122  XYZ=             -0.2345
 Hexadecapole moment (field-independent basis, Debye-Ang**3):
 XXXX=           -199.7434 YYYY=           -184.1826 ZZZZ=            -52.7787 XXXY=            -14.3909
 XXXZ=             12.0953 YYYX=            -16.0896 YYYZ=             -7.9745 ZZZX=              4.8150
 ZZZY=             -3.0507 XXYY=            -77.9529 XXZZ=            -55.2679 YYZZ=            -42.7453
 XXYZ=            -18.8186 YYXZ=              7.3165 ZZXY=             -2.9923
 N-N= 1.945059441820D+02 E-N=-1.010573909484D+03  KE= 2.672980276580D+02
  Exact polarizability:   0.000   0.000   0.000   0.000   0.000   0.000
 Approx polarizability:  81.163  -7.208  58.233  -0.557   0.391  54.542
 PrsmSu:  requested number of processors reduced to:  10 ShMem   1 Linda.
 PrsmSu:  requested number of processors reduced to:  10 ShMem   1 Linda.
 D2PCM: PCM CHGder 2nd derivatives, FixD1E=F FixD2E=F DoIter=F DoCFld=F I1PDM=0
 CoulSu:  requested number of processors reduced to:  10 ShMem   1 Linda.
 CoulSu:  requested number of processors reduced to:  10 ShMem   1 Linda.
 CoulSu:  requested number of processors reduced to:  10 ShMem   1 Linda.
 CoulSu:  requested number of processors reduced to:  15 ShMem   1 Linda.
 CoulSu:  requested number of processors reduced to:  22 ShMem   1 Linda.
 CoulSu:  requested number of processors reduced to:  10 ShMem   1 Linda.
 CoulSu:  requested number of processors reduced to:  10 ShMem   1 Linda.
 CoulSu:  requested number of processors reduced to:  10 ShMem   1 Linda.
 CoulSu:  requested number of processors reduced to:  22 ShMem   1 Linda.
 CoulSu:  requested number of processors reduced to:  10 ShMem   1 Linda.
 CoulSu:  requested number of processors reduced to:  10 ShMem   1 Linda.
 CoulSu:  requested number of processors reduced to:  10 ShMem   1 Linda.
 CoulSu:  requested number of processors reduced to:  10 ShMem   1 Linda.
 CoulSu:  requested number of processors reduced to:  10 ShMem   1 Linda.
 CoulSu:  requested number of processors reduced to:  10 ShMem   1 Linda.
 CoulSu:  requested number of processors reduced to:  10 ShMem   1 Linda.
 CoulSu:  requested number of processors reduced to:  10 ShMem   1 Linda.
 CoulSu:  requested number of processors reduced to:  10 ShMem   1 Linda.
 CoulSu:  requested number of processors reduced to:  22 ShMem   1 Linda.
 CoulSu:  requested number of processors reduced to:  22 ShMem   1 Linda.
 CoulSu:  requested number of processors reduced to:  21 ShMem   1 Linda.
 CoulSu:  requested number of processors reduced to:  21 ShMem   1 Linda.
 CoulSu:  requested number of processors reduced to:  22 ShMem   1 Linda.
 CoulSu:  requested number of processors reduced to:  10 ShMem   1 Linda.
 Calling FoFJK, ICntrl=    100147 FMM=F ISym2X=0 I1Cent= 0 IOpClX= 0 NMat=1 NMatS=1 NMatT=0.
 CoulSu:  requested number of processors reduced to:  10 ShMem   1 Linda.
 CalDSu:  requested number of processors reduced to:  23 ShMem   1 Linda.
 ***** Axes restored to original set *****
 -------------------------------------------------------------------
 Center     Atomic                   Forces (Hartrees/Bohr)
 Number     Number              X              Y              Z
 -------------------------------------------------------------------
      1        6           0.001358192   -0.001629335    0.003805826
      2        6           0.001263476    0.006987664    0.003754602
      3        1          -0.001268904   -0.001279051    0.000844660
      4        1           0.000169148    0.001300899   -0.000666396
      5        1           0.000511441   -0.000094674   -0.002256131
      6        6           0.000052210   -0.000928943    0.000625677
      7        1          -0.000186029   -0.000075990    0.000261381
      8        1           0.000627171   -0.000294899   -0.000568406
      9        1           0.000105815    0.000600443    0.001017075
     10        8          -0.004265810   -0.002415297   -0.004822712
     11        1           0.003013320    0.002167566    0.000674889
     12        8          -0.000513971    0.000598477   -0.005426160
     13        1          -0.000593191   -0.002199755    0.001385049
     14        1          -0.000272868   -0.002737106    0.001370646
 -------------------------------------------------------------------
 Cartesian Forces:  Max     0.006987664 RMS     0.002218473

 GradGradGradGradGradGradGradGradGradGradGradGradGradGradGradGradGradGrad
 Berny optimization.
 Internal  Forces:  Max     0.006152803 RMS     0.001272915
 Search for a saddle point.
 Step number   1 out of a maximum of   90
 All quantities printed in internal units (Hartrees-Bohrs-Radians)
 Swaping is turned off.
 Second derivative matrix not updated -- analytic derivatives used.
 ITU=  0
     Eigenvalues ---   -0.01494   0.00015   0.00137   0.00174   0.00372
     Eigenvalues ---    0.00754   0.01196   0.01318   0.01565   0.02138
     Eigenvalues ---    0.03405   0.04172   0.04291   0.04784   0.05515
     Eigenvalues ---    0.06109   0.07214   0.08672   0.10564   0.12486
     Eigenvalues ---    0.12971   0.14084   0.15713   0.16731   0.28167
     Eigenvalues ---    0.30463   0.30748   0.31495   0.34301   0.34355
     Eigenvalues ---    0.34971   0.35157   0.36833   0.38256   0.40559
     Eigenvalues ---    0.50196
 Eigenvectors required to have negative eigenvalues:
                          R7        R9        R8        A3        D6
   1                    0.42642   0.41365   0.41001  -0.24868  -0.22229
                          D2        R11       R10       D18       D11
   1                    0.21820   0.16509   0.15728   0.15182  -0.15022
 RFO step:  Lambda0=1.485386029D-03 Lambda=-2.73444711D-03.
 Linear search not attempted -- option 19 set.
 Maximum step size (   0.300) exceeded in Quadratic search.
    -- Step size scaled by   0.624
 Iteration  1 RMS(Cart)=  0.03658459 RMS(Int)=  0.00556330
 Iteration  2 RMS(Cart)=  0.00275573 RMS(Int)=  0.00317852
 Iteration  3 RMS(Cart)=  0.00003128 RMS(Int)=  0.00317801
 Iteration  4 RMS(Cart)=  0.00000036 RMS(Int)=  0.00317801
 Variable       Old X    -DE/DX   Delta X   Delta X   Delta X     New X
                                 (Linear)    (Quad)   (Total)
    R1        2.77842  -0.00181   0.00000  -0.01446  -0.01446   2.76396
    R2        2.06109  -0.00150   0.00000  -0.00355  -0.00355   2.05753
    R3        2.84006  -0.00148   0.00000  -0.00574  -0.00574   2.83432
    R4        2.80151  -0.00025   0.00000   0.01557   0.01557   2.81707
    R5        2.04712  -0.00016   0.00000  -0.00191  -0.00085   2.04627
    R6        2.04732  -0.00061   0.00000  -0.00218  -0.00293   2.04439
    R7        3.95739  -0.00116   0.00000   0.13427   0.13958   4.09696
    R8        5.10337  -0.00138   0.00000   0.02208   0.01737   5.12074
    R9        5.12565  -0.00144   0.00000   0.03393   0.02846   5.15411
   R10        4.49122  -0.00090   0.00000   0.06498   0.06579   4.55700
   R11        4.48634  -0.00018   0.00000   0.08265   0.08492   4.57126
   R12        2.06793  -0.00014   0.00000   0.00014   0.00014   2.06807
   R13        2.06515   0.00061   0.00000   0.00065   0.00065   2.06581
   R14        2.06600   0.00029   0.00000   0.00026   0.00026   2.06626
   R15        1.84109   0.00076   0.00000   0.00305   0.00305   1.84413
   R16        1.83314   0.00075   0.00000   0.00102   0.00533   1.83846
   R17        1.83306   0.00067   0.00000   0.00054   0.00485   1.83791
    A1        2.00516  -0.00074   0.00000   0.00902   0.00852   2.01368
    A2        2.10399  -0.00193   0.00000   0.00688   0.00654   2.11053
    A3        1.36742   0.00441   0.00000  -0.03761  -0.03756   1.32986
    A4        1.99389   0.00203   0.00000   0.01182   0.01151   2.00540
    A5        1.94335  -0.00169   0.00000  -0.01081  -0.01066   1.93269
    A6        1.95203  -0.00196   0.00000   0.00100   0.00106   1.95309
    A7        2.07198   0.00052   0.00000   0.00944   0.00971   2.08169
    A8        2.10012  -0.00171   0.00000  -0.00480  -0.00420   2.09592
    A9        1.82473  -0.00037   0.00000  -0.01954  -0.01772   1.80701
   A10        1.95014   0.00038   0.00000   0.03267   0.03288   1.98302
   A11        1.91831  -0.00028   0.00000   0.01409   0.01513   1.93343
   A12        2.06151   0.00112   0.00000   0.01908   0.01576   2.07727
   A13        1.27176  -0.00027   0.00000  -0.04812  -0.04726   1.22449
   A14        1.79064   0.00020   0.00000  -0.04444  -0.04607   1.74458
   A15        1.75718   0.00068   0.00000  -0.05000  -0.05180   1.70539
   A16        1.27980   0.00019   0.00000  -0.03944  -0.03995   1.23985
   A17        0.58376   0.00037   0.00000  -0.00772  -0.00978   0.57398
   A18        1.90522   0.00005   0.00000  -0.00484  -0.00486   1.90037
   A19        1.91891  -0.00054   0.00000   0.00161   0.00160   1.92051
   A20        1.94296  -0.00048   0.00000  -0.00140  -0.00142   1.94155
   A21        1.89041   0.00024   0.00000   0.00041   0.00041   1.89082
   A22        1.90585  -0.00016   0.00000  -0.00404  -0.00406   1.90179
   A23        1.89970   0.00091   0.00000   0.00830   0.00829   1.90799
   A24        1.94842  -0.00615   0.00000  -0.02144  -0.02144   1.92697
   A25        0.80380   0.00023   0.00000  -0.00996  -0.01088   0.79292
   A26        1.60409  -0.00078   0.00000  -0.08263  -0.08406   1.52003
   A27        2.34473  -0.00078   0.00000  -0.11037  -0.11507   2.22966
   A28        2.27273  -0.00079   0.00000  -0.13891  -0.14149   2.13125
   A29        1.62889  -0.00067   0.00000  -0.07606  -0.08057   1.54832
   A30        1.86421  -0.00013   0.00000  -0.02094  -0.03876   1.82545
    D1        3.04251  -0.00011   0.00000  -0.02630  -0.02689   3.01563
    D2       -0.43824  -0.00011   0.00000   0.05589   0.05652  -0.38173
    D3        1.30555  -0.00020   0.00000   0.01756   0.01856   1.32410
    D4        1.61544  -0.00014   0.00000   0.01147   0.00995   1.62539
    D5        0.99045  -0.00051   0.00000   0.01510   0.01578   1.00622
    D6        0.54546   0.00013   0.00000  -0.07440  -0.07505   0.47041
    D7       -2.93530   0.00013   0.00000   0.00779   0.00836  -2.92694
    D8       -1.19151   0.00003   0.00000  -0.03054  -0.02960  -1.22111
    D9       -0.88162   0.00010   0.00000  -0.03663  -0.03821  -0.91983
   D10       -1.50661  -0.00028   0.00000  -0.03300  -0.03238  -1.53899
   D11       -1.35044  -0.00007   0.00000  -0.05462  -0.05527  -1.40571
   D12        1.45198  -0.00007   0.00000   0.02757   0.02814   1.48012
   D13       -3.08741  -0.00017   0.00000  -0.01076  -0.00982  -3.09723
   D14       -2.77752  -0.00010   0.00000  -0.01685  -0.01843  -2.79595
   D15        2.88067  -0.00048   0.00000  -0.01322  -0.01260   2.86807
   D16        1.40555  -0.00165   0.00000   0.03903   0.03908   1.44463
   D17       -2.80624  -0.00165   0.00000   0.03756   0.03760  -2.76865
   D18       -0.69966  -0.00118   0.00000   0.04815   0.04819  -0.65147
   D19       -1.09536  -0.00048   0.00000  -0.00783  -0.00785  -1.10321
   D20        0.97603  -0.00048   0.00000  -0.00931  -0.00933   0.96670
   D21        3.08262   0.00000   0.00000   0.00128   0.00126   3.08387
   D22        2.96026   0.00185   0.00000  -0.00378  -0.00379   2.95647
   D23       -1.25153   0.00185   0.00000  -0.00525  -0.00528  -1.25681
   D24        0.85505   0.00233   0.00000   0.00534   0.00531   0.86037
   D25       -1.76194   0.00051   0.00000   0.04210   0.04201  -1.71993
   D26        0.19945   0.00131   0.00000   0.03977   0.03995   0.23941
   D27        2.45382   0.00104   0.00000   0.04765   0.04756   2.50139
   D28        0.59290  -0.00075   0.00000  -0.01277  -0.01183   0.58107
   D29       -3.07395  -0.00134   0.00000  -0.13674  -0.13479   3.07445
   D30        1.18597   0.00010   0.00000   0.04210   0.03423   1.22020
   D31       -1.30800   0.00015   0.00000  -0.07645  -0.06788  -1.37588
   D32        2.96146   0.00134   0.00000   0.09060   0.08773   3.04919
   D33        2.44001  -0.00200   0.00000  -0.24427  -0.23311   2.20690
         Item               Value     Threshold  Converged?
 Maximum Force            0.006153     0.000450     NO 
 RMS     Force            0.001273     0.000300     NO 
 Maximum Displacement     0.169507     0.001800     NO 
 RMS     Displacement     0.038093     0.001200     NO 
 Predicted change in Energy=-7.422122D-04
 GradGradGradGradGradGradGradGradGradGradGradGradGradGradGradGradGradGrad

                          Input orientation:                          
 ---------------------------------------------------------------------
 Center     Atomic      Atomic             Coordinates (Angstroms)
 Number     Number       Type             X           Y           Z
 ---------------------------------------------------------------------
      1          6           0       -0.003069    0.009100   -0.018566
      2          6           0       -0.011825   -0.009169    1.443918
      3          1           0        0.983155   -0.009654   -0.479538
      4          1           0       -0.948816    0.126255    1.969514
      5          1           0        0.844656   -0.386227    1.986737
      6          6           0       -1.044639    0.767688   -0.786189
      7          1           0       -0.747777    1.819575   -0.841519
      8          1           0       -1.118002    0.377035   -1.804544
      9          1           0       -2.022249    0.699399   -0.301239
     10          8           0       -0.455037   -1.371208    0.317226
     11          1           0        0.292191   -1.996549    0.263109
     12          8           0        0.550621    2.014834    1.979987
     13          1           0       -0.091985    2.458783    2.560027
     14          1           0        1.400033    2.098142    2.446324
 ---------------------------------------------------------------------
                    Distance matrix (angstroms):
                    1          2          3          4          5
     1  C    0.000000
     2  C    1.462625   0.000000
     3  H    1.088799   2.165564   0.000000
     4  H    2.204682   1.082840   3.122313   0.000000
     5  H    2.212727   1.081843   2.498700   1.865335   0.000000
     6  C    1.499857   2.577516   2.193228   2.830992   3.548250
     7  H    2.123597   3.018138   2.544256   3.287804   3.924340
     8  H    2.137328   3.453302   2.513968   3.786163   4.336867
     9  H    2.152559   2.754896   3.093057   2.576252   3.825254
    10  O    1.490732   1.822367   2.134727   2.283915   2.333807
    11  H    2.046740   2.331611   2.230854   2.993027   2.422653
    12  O    2.885092   2.168019   3.214794   2.411462   2.419007
    13  H    3.557808   2.709781   4.060550   2.554125   3.049597
    14  H    3.522566   2.727438   3.630049   3.103672   2.586842
                    6          7          8          9         10
     6  C    0.000000
     7  H    1.094374   0.000000
     8  H    1.093179   1.773529   0.000000
     9  H    1.093417   1.780724   1.783678   0.000000
    10  O    2.477909   3.407269   2.828036   2.669469   0.000000
    11  H    3.244865   4.106646   3.449310   3.597674   0.975874
    12  O    3.428113   3.112051   4.448524   3.681579   3.904024
    13  H    3.868399   3.522665   4.943265   3.874042   4.453178
    14  H    4.265638   3.937080   5.231882   4.606257   4.473335
                   11         12         13         14
    11  H    0.000000
    12  O    4.371001   0.000000
    13  H    5.027266   0.972872   0.000000
    14  H    4.770768   0.972579   1.539191   0.000000
 Stoichiometry    C3H9O2(1+)
 Framework group  C1[X(C3H9O2)]
 Deg. of freedom    36
 Full point group                 C1      NOp   1
 Largest Abelian subgroup         C1      NOp   1
 Largest concise Abelian subgroup C1      NOp   1
                         Standard orientation:                         
 ---------------------------------------------------------------------
 Center     Atomic      Atomic             Coordinates (Angstroms)
 Number     Number       Type             X           Y           Z
 ---------------------------------------------------------------------
      1          6           0       -0.620724    0.112313   -0.437041
      2          6           0        0.313459   -0.790191    0.235314
      3          1           0       -0.628034    0.051085   -1.524093
      4          1           0        0.459020   -0.700970    1.304610
      5          1           0        0.668824   -1.678070   -0.270425
      6          6           0       -0.914208    1.473283    0.120810
      7          1           0       -0.127459    2.163953   -0.198026
      8          1           0       -1.869540    1.838335   -0.265348
      9          1           0       -0.949142    1.454454    1.213507
     10          8           0       -1.501531   -0.933751    0.156431
     11          1           0       -1.740053   -1.599409   -0.516129
     12          8           0        2.241776    0.149670   -0.078627
     13          1           0        2.728103    0.329191    0.744621
     14          1           0        2.865160   -0.358343   -0.625642
 ---------------------------------------------------------------------
 Rotational constants (GHZ):      6.7601387      3.0213152      2.2864803
 Standard basis: 6-31++G(d,p) (6D, 7F)
 There are   149 symmetry adapted basis functions of A   symmetry.
 Integral buffers will be    131072 words long.
 Raffenetti 2 integral format.
 Two-electron integral symmetry is turned on.
   149 basis functions,   232 primitive gaussians,   149 cartesian basis functions
    21 alpha electrons       21 beta electrons
       nuclear repulsion energy       194.0275331336 Hartrees.
 NAtoms=   14 NActive=   14 NUniq=   14 SFac= 1.00D+00 NAtFMM=   50 NAOKFM=F Big=F
 ------------------------------------------------------------------------------
 Polarizable Continuum Model (PCM)
 =================================
 Model                : PCM.
 Atomic radii         : SMD-Coulomb.
 Polarization charges : Total charges.
 Charge compensation  : None.
 Solution method      : Matrix inversion.
 Cavity type          : VdW (van der Waals Surface) (Alpha=1.000).
 Cavity algorithm     : GePol (No added spheres)
                        Default sphere list used, NSphG=   14.
                        Lebedev-Laikov grids with approx.  5.0 points / Ang**2.
                        Smoothing algorithm: Karplus/York (Gamma=1.0000).
                        Polarization charges: spherical gaussians, with
                                              point-specific exponents (IZeta= 3).
                        Self-potential: point-specific (ISelfS= 7).
                        Self-field    : sphere-specific E.n sum rule (ISelfD= 2).
 1st derivatives      : Analytical E(r).r(x)/FMM algorithm (CHGder, D1EAlg=3).
                        Cavity 1st derivative terms included.
 Solvent              : Water, Eps=  78.355300 Eps(inf)=   1.777849
 ------------------------------------------------------------------------------
 Spheres list:
 ISph  on   Nord    Re0     Alpha      Xe            Ye            Ze
    1   C      1    1.850   1.000     -0.620724      0.112313     -0.437041
    2   C      2    1.850   1.000      0.313459     -0.790191      0.235314
    3   H      3    1.200   1.000     -0.628034      0.051085     -1.524093
    4   H      4    1.200   1.000      0.459020     -0.700970      1.304610
    5   H      5    1.200   1.000      0.668824     -1.678070     -0.270425
    6   C      6    1.850   1.000     -0.914208      1.473283      0.120810
    7   H      7    1.200   1.000     -0.127459      2.163953     -0.198026
    8   H      8    1.200   1.000     -1.869540      1.838335     -0.265348
    9   H      9    1.200   1.000     -0.949142      1.454454      1.213507
   10   O     10    1.520   1.000     -1.501531     -0.933751      0.156431
   11   H     11    1.200   1.000     -1.740053     -1.599409     -0.516129
   12   O     12    1.520   1.000      2.241776      0.149670     -0.078627
   13   H     13    1.200   1.000      2.728103      0.329191      0.744621
   14   H     14    1.200   1.000      2.865160     -0.358343     -0.625642
 ------------------------------------------------------------------------------
 ------------------------------------------------------------------------------
 Atomic radii for non-electrostatic terms: SMD-CDS.
 ------------------------------------------------------------------------------
 Nuclear repulsion after PCM non-electrostatic terms =      194.0337128819 Hartrees.
 One-electron integrals computed using PRISM.
 PrsmSu:  requested number of processors reduced to:  10 ShMem   1 Linda.
 NBasis=   149 RedAO= T  NBF=   149
 NBsUse=   149 1.00D-06 NBFU=   149
 Initial guess read from the read-write file.
 B after Tr=     0.000000    0.000000    0.000000
         Rot=    1.000000    0.000000    0.000000    0.000000 Ang=   0.00 deg.
 Initial guess orbital symmetries:
       Occupied  (A) (A) (A) (A) (A) (A) (A) (A) (A) (A) (A) (A)
                 (A) (A) (A) (A) (A) (A) (A) (A) (A)
       Virtual   (A) (A) (A) (A) (A) (A) (A) (A) (A) (A) (A) (A)
                 (A) (A) (A) (A) (A) (A) (A) (A) (A) (A) (A) (A)
                 (A) (A) (A) (A) (A) (A) (A) (A) (A) (A) (A) (A)
                 (A) (A) (A) (A) (A) (A) (A) (A) (A) (A) (A) (A)
                 (A) (A) (A) (A) (A) (A) (A) (A) (A) (A) (A) (A)
                 (A) (A) (A) (A) (A) (A) (A) (A) (A) (A) (A) (A)
                 (A) (A) (A) (A) (A) (A) (A) (A) (A) (A) (A) (A)
                 (A) (A) (A) (A) (A) (A) (A) (A) (A) (A) (A) (A)
                 (A) (A) (A) (A) (A) (A) (A) (A) (A) (A) (A) (A)
                 (A) (A) (A) (A) (A) (A) (A) (A) (A) (A) (A) (A)
                 (A) (A) (A) (A) (A) (A) (A) (A)
 Harris functional with IExCor=  402 diagonalized for initial guess.
 ExpMin= 3.60D-02 ExpMax= 5.48D+03 ExpMxC= 8.25D+02 IAcc=3 IRadAn=         0 AccDes= 0.00D+00
 HarFok:  IExCor=  402 AccDes= 0.00D+00 IRadAn=         0 IDoV= 1
 ScaDFX=  1.000000  1.000000  1.000000  1.000000
 FoFCou: FMM=F IPFlag=           0 FMFlag=      100000 FMFlg1=           0
         NFxFlg=           0 DoJE=T BraDBF=F KetDBF=T FulRan=T
         Omega=  0.000000  0.000000  1.000000  0.000000  0.000000 ICntrl=     500 IOpCl=  0
         NMat0=    1 NMatS0=    1 NMatT0=    0 NMatD0=    1 NMtDS0=    0 NMtDT0=    0
         I1Cent=           4 NGrid=           0.
 Petite list used in FoFCou.
 Requested convergence on RMS density matrix=1.00D-08 within 128 cycles.
 Requested convergence on MAX density matrix=1.00D-06.
 Requested convergence on             energy=1.00D-06.
 No special actions if energy rises.
 CoulSu:  requested number of processors reduced to:  14 ShMem   1 Linda.
 CoulSu:  requested number of processors reduced to:  14 ShMem   1 Linda.
 CoulSu:  requested number of processors reduced to:  15 ShMem   1 Linda.
 CoulSu:  requested number of processors reduced to:  15 ShMem   1 Linda.
 CoulSu:  requested number of processors reduced to:  15 ShMem   1 Linda.
 CoulSu:  requested number of processors reduced to:  15 ShMem   1 Linda.
 CoulSu:  requested number of processors reduced to:  15 ShMem   1 Linda.
 CoulSu:  requested number of processors reduced to:  15 ShMem   1 Linda.
 CoulSu:  requested number of processors reduced to:  15 ShMem   1 Linda.
 CoulSu:  requested number of processors reduced to:  15 ShMem   1 Linda.
 CoulSu:  requested number of processors reduced to:  15 ShMem   1 Linda.
 CoulSu:  requested number of processors reduced to:  15 ShMem   1 Linda.
 CoulSu:  requested number of processors reduced to:  15 ShMem   1 Linda.
 CoulSu:  requested number of processors reduced to:  15 ShMem   1 Linda.
 CoulSu:  requested number of processors reduced to:  15 ShMem   1 Linda.
 CoulSu:  requested number of processors reduced to:  15 ShMem   1 Linda.
 Error on total polarization charges =  0.03579
 SCF Done:  E(RB3LYP) =  -269.994758095     A.U. after   13 cycles
             Convg  =    0.1818D-08             -V/T =  2.0100
 SMD-CDS (non-electrostatic) energy       (kcal/mol) =       3.88
 (included in total energy above)
 PrsmSu:  requested number of processors reduced to:  10 ShMem   1 Linda.
 PrsmSu:  requested number of processors reduced to:  23 ShMem   1 Linda.
 D1PCM: PCM CHGder 1st derivatives, ID1Alg=3 FixD1E=F DoIter=F DoCFld=F I1PDM=0.
 CoulSu:  requested number of processors reduced to:  22 ShMem   1 Linda.
 CoulSu:  requested number of processors reduced to:  22 ShMem   1 Linda.
 CoulSu:  requested number of processors reduced to:  15 ShMem   1 Linda.
 CoulSu:  requested number of processors reduced to:  10 ShMem   1 Linda.
 CoulSu:  requested number of processors reduced to:  10 ShMem   1 Linda.
 CoulSu:  requested number of processors reduced to:  22 ShMem   1 Linda.
 CoulSu:  requested number of processors reduced to:  22 ShMem   1 Linda.
 Calling FoFJK, ICntrl=      2127 FMM=F ISym2X=0 I1Cent= 0 IOpClX= 0 NMat=1 NMatS=1 NMatT=0.
 CoulSu:  requested number of processors reduced to:  16 ShMem   1 Linda.
 ***** Axes restored to original set *****
 -------------------------------------------------------------------
 Center     Atomic                   Forces (Hartrees/Bohr)
 Number     Number              X              Y              Z
 -------------------------------------------------------------------
      1        6           0.000708242   -0.000569125    0.001204121
      2        6          -0.000221814    0.003047750    0.001915731
      3        1          -0.000486889   -0.000490769    0.000275540
      4        1           0.000199805    0.000571595   -0.000558854
      5        1           0.000621390   -0.000181123   -0.000733932
      6        6          -0.000124901   -0.000426908    0.000297075
      7        1          -0.000053347   -0.000016743    0.000082951
      8        1           0.000212791   -0.000114567   -0.000200891
      9        1           0.000055450    0.000310646    0.000419692
     10        8          -0.001448473   -0.001098809   -0.001728128
     11        1           0.001195212    0.001003153    0.000410989
     12        8           0.000521708    0.003342797    0.001206898
     13        1           0.000049242   -0.002746402   -0.001287695
     14        1          -0.001228415   -0.002631496   -0.001303498
 -------------------------------------------------------------------
 Cartesian Forces:  Max     0.003342797 RMS     0.001188029

 GradGradGradGradGradGradGradGradGradGradGradGradGradGradGradGradGradGrad
 Berny optimization.
 Internal  Forces:  Max     0.002525213 RMS     0.000563428
 Search for a saddle point.
 Step number   2 out of a maximum of   90
 All quantities printed in internal units (Hartrees-Bohrs-Radians)
 Swaping is turned off.
 Update second derivatives using D2CorX and points    1    2
 ITU=  0  0
     Eigenvalues ---   -0.01571   0.00016   0.00171   0.00264   0.00370
     Eigenvalues ---    0.00752   0.01200   0.01320   0.01564   0.02136
     Eigenvalues ---    0.03401   0.04171   0.04291   0.04803   0.05548
     Eigenvalues ---    0.06113   0.07209   0.08661   0.10569   0.12486
     Eigenvalues ---    0.12966   0.14081   0.15713   0.16728   0.28167
     Eigenvalues ---    0.30419   0.30716   0.31494   0.34301   0.34355
     Eigenvalues ---    0.34971   0.35157   0.36832   0.38271   0.40470
     Eigenvalues ---    0.50196
 Eigenvectors required to have negative eigenvalues:
                          R7        R9        R8        A3        D6
   1                    0.43495   0.40366   0.39814  -0.25256  -0.22777
                          D2        R11       R10       D18       D11
   1                    0.22185   0.16545   0.15769   0.15706  -0.15483
 RFO step:  Lambda0=1.884384609D-04 Lambda=-1.06914871D-03.
 Linear search not attempted -- option 19 set.
 Maximum step size (   0.300) exceeded in Quadratic search.
    -- Step size scaled by   0.805
 Iteration  1 RMS(Cart)=  0.04814264 RMS(Int)=  0.00595948
 Iteration  2 RMS(Cart)=  0.00329416 RMS(Int)=  0.00303350
 Iteration  3 RMS(Cart)=  0.00001207 RMS(Int)=  0.00303344
 Iteration  4 RMS(Cart)=  0.00000011 RMS(Int)=  0.00303344
 Variable       Old X    -DE/DX   Delta X   Delta X   Delta X     New X
                                 (Linear)    (Quad)   (Total)
    R1        2.76396  -0.00076   0.00000  -0.00773  -0.00773   2.75623
    R2        2.05753  -0.00055   0.00000  -0.00194  -0.00194   2.05560
    R3        2.83432  -0.00051   0.00000  -0.00327  -0.00327   2.83105
    R4        2.81707  -0.00013   0.00000   0.01235   0.01235   2.82942
    R5        2.04627  -0.00032   0.00000  -0.00005   0.00186   2.04814
    R6        2.04439   0.00007   0.00000  -0.00181  -0.00279   2.04160
    R7        4.09696   0.00028   0.00000   0.09364   0.09912   4.19608
    R8        5.12074  -0.00145   0.00000  -0.04715  -0.05217   5.06857
    R9        5.15411  -0.00138   0.00000  -0.04632  -0.05102   5.10309
   R10        4.55700  -0.00019   0.00000   0.03073   0.02935   4.58635
   R11        4.57126   0.00021   0.00000   0.05497   0.05802   4.62928
   R12        2.06807  -0.00003   0.00000   0.00031   0.00031   2.06838
   R13        2.06581   0.00022   0.00000   0.00026   0.00026   2.06607
   R14        2.06626   0.00010   0.00000   0.00002   0.00002   2.06628
   R15        1.84413   0.00025   0.00000   0.00167   0.00167   1.84581
   R16        1.83846  -0.00106   0.00000   0.00377   0.00920   1.84766
   R17        1.83791  -0.00105   0.00000   0.00073   0.00440   1.84231
    A1        2.01368  -0.00018   0.00000   0.00838   0.00812   2.02179
    A2        2.11053  -0.00071   0.00000   0.00275   0.00257   2.11310
    A3        1.32986   0.00130   0.00000  -0.02982  -0.02980   1.30006
    A4        2.00540   0.00071   0.00000   0.00764   0.00747   2.01287
    A5        1.93269  -0.00065   0.00000  -0.00656  -0.00643   1.92625
    A6        1.95309  -0.00047   0.00000   0.00170   0.00167   1.95476
    A7        2.08169   0.00021   0.00000   0.00325   0.00268   2.08437
    A8        2.09592  -0.00070   0.00000  -0.00163   0.00006   2.09598
    A9        1.80701   0.00023   0.00000  -0.00112   0.00209   1.80910
   A10        1.98302   0.00037   0.00000   0.06975   0.06931   2.05233
   A11        1.93343   0.00008   0.00000  -0.00246  -0.00135   1.93208
   A12        2.07727   0.00050   0.00000   0.01009   0.00797   2.08524
   A13        1.22449  -0.00017   0.00000  -0.04274  -0.03877   1.18573
   A14        1.74458  -0.00009   0.00000  -0.00854  -0.01011   1.73446
   A15        1.70539   0.00003   0.00000  -0.06895  -0.07202   1.63337
   A16        1.23985  -0.00005   0.00000  -0.03405  -0.03447   1.20538
   A17        0.57398   0.00001   0.00000   0.00223   0.00138   0.57536
   A18        1.90037  -0.00003   0.00000  -0.00473  -0.00474   1.89563
   A19        1.92051  -0.00018   0.00000   0.00206   0.00206   1.92257
   A20        1.94155  -0.00015   0.00000   0.00043   0.00042   1.94197
   A21        1.89082   0.00008   0.00000  -0.00041  -0.00041   1.89040
   A22        1.90179  -0.00008   0.00000  -0.00260  -0.00261   1.89918
   A23        1.90799   0.00035   0.00000   0.00514   0.00513   1.91312
   A24        1.92697  -0.00253   0.00000  -0.01214  -0.01214   1.91483
   A25        0.79292   0.00007   0.00000  -0.00577  -0.00623   0.78670
   A26        1.52003  -0.00067   0.00000  -0.09240  -0.08906   1.43097
   A27        2.22966  -0.00053   0.00000  -0.07882  -0.08222   2.14744
   A28        2.13125  -0.00056   0.00000  -0.18202  -0.18275   1.94849
   A29        1.54832  -0.00070   0.00000  -0.09503  -0.09862   1.44970
   A30        1.82545   0.00080   0.00000  -0.01691  -0.02916   1.79629
    D1        3.01563  -0.00004   0.00000  -0.01941  -0.01972   2.99591
    D2       -0.38173   0.00008   0.00000   0.03394   0.03459  -0.34714
    D3        1.32410  -0.00005   0.00000   0.01441   0.01663   1.34074
    D4        1.62539  -0.00009   0.00000  -0.00357  -0.00724   1.61815
    D5        1.00622  -0.00014   0.00000  -0.00827  -0.00699   0.99924
    D6        0.47041   0.00001   0.00000  -0.05486  -0.05521   0.41520
    D7       -2.92694   0.00013   0.00000  -0.00151  -0.00091  -2.92785
    D8       -1.22111   0.00000   0.00000  -0.02104  -0.01886  -1.23998
    D9       -0.91983  -0.00004   0.00000  -0.03902  -0.04273  -0.96256
   D10       -1.53899  -0.00008   0.00000  -0.04372  -0.04248  -1.58147
   D11       -1.40571  -0.00020   0.00000  -0.04024  -0.04061  -1.44631
   D12        1.48012  -0.00008   0.00000   0.01312   0.01370   1.49382
   D13       -3.09723  -0.00021   0.00000  -0.00641  -0.00426  -3.10149
   D14       -2.79595  -0.00025   0.00000  -0.02440  -0.02813  -2.82408
   D15        2.86807  -0.00029   0.00000  -0.02909  -0.02788   2.84020
   D16        1.44463  -0.00047   0.00000   0.04130   0.04131   1.48594
   D17       -2.76865  -0.00049   0.00000   0.03916   0.03917  -2.72948
   D18       -0.65147  -0.00026   0.00000   0.04732   0.04733  -0.60413
   D19       -1.10321  -0.00014   0.00000   0.00576   0.00577  -1.09745
   D20        0.96670  -0.00016   0.00000   0.00362   0.00363   0.97032
   D21        3.08387   0.00007   0.00000   0.01179   0.01179   3.09567
   D22        2.95647   0.00058   0.00000   0.00684   0.00683   2.96329
   D23       -1.25681   0.00056   0.00000   0.00470   0.00468  -1.25213
   D24        0.86037   0.00079   0.00000   0.01287   0.01285   0.87322
   D25       -1.71993   0.00027   0.00000   0.02961   0.02956  -1.69036
   D26        0.23941   0.00055   0.00000   0.03015   0.03025   0.26965
   D27        2.50139   0.00058   0.00000   0.03643   0.03638   2.53777
   D28        0.58107  -0.00023   0.00000  -0.00867  -0.00870   0.57237
   D29        3.07445  -0.00030   0.00000  -0.20263  -0.20195   2.87250
   D30        1.22020  -0.00070   0.00000  -0.09430  -0.09726   1.12295
   D31       -1.37588   0.00061   0.00000  -0.13418  -0.12201  -1.49789
   D32        3.04919   0.00020   0.00000  -0.02299  -0.02997   3.01922
   D33        2.20690  -0.00077   0.00000  -0.20902  -0.19913   2.00777
         Item               Value     Threshold  Converged?
 Maximum Force            0.002525     0.000450     NO 
 RMS     Force            0.000563     0.000300     NO 
 Maximum Displacement     0.259915     0.001800     NO 
 RMS     Displacement     0.048539     0.001200     NO 
 Predicted change in Energy=-5.382694D-04
 GradGradGradGradGradGradGradGradGradGradGradGradGradGradGradGradGradGrad

                          Input orientation:                          
 ---------------------------------------------------------------------
 Center     Atomic      Atomic             Coordinates (Angstroms)
 Number     Number       Type             X           Y           Z
 ---------------------------------------------------------------------
      1          6           0       -0.003587    0.021290   -0.035123
      2          6           0       -0.024235    0.001201    1.423128
      3          1           0        0.981281   -0.010881   -0.495834
      4          1           0       -0.959572    0.167706    1.944761
      5          1           0        0.833830   -0.358749    1.972087
      6          6           0       -1.051416    0.756857   -0.813180
      7          1           0       -0.750514    1.805678   -0.899481
      8          1           0       -1.135192    0.339539   -1.820239
      9          1           0       -2.023004    0.708664   -0.313906
     10          8           0       -0.448658   -1.358183    0.340074
     11          1           0        0.315462   -1.966420    0.324931
     12          8           0        0.542592    2.073556    1.983963
     13          1           0       -0.060843    2.360970    2.697568
     14          1           0        1.411112    2.056777    2.426497
 ---------------------------------------------------------------------
                    Distance matrix (angstroms):
                    1          2          3          4          5
     1  C    0.000000
     2  C    1.458536   0.000000
     3  H    1.087775   2.166477   0.000000
     4  H    2.203472   1.083827   3.123349   0.000000
     5  H    2.207848   1.080369   2.496676   1.869277   0.000000
     6  C    1.498125   2.574333   2.195903   2.821661   3.543508
     7  H    2.118739   3.029543   2.542033   3.288825   3.929478
     8  H    2.137394   3.445015   2.521171   3.773009   4.329711
     9  H    2.151336   2.740961   3.094603   2.554427   3.811382
    10  O    1.497267   1.789152   2.135109   2.272530   2.303717
    11  H    2.045097   2.278808   2.222859   2.967163   2.359329
    12  O    2.930327   2.220469   3.269054   2.426993   2.449708
    13  H    3.597914   2.682172   4.112118   2.486934   2.953580
    14  H    3.493445   2.700438   3.605549   3.069333   2.524779
[...]
 ! R8    R(2,13)                 2.6638         -DE/DX =    0.0                 !
 ! R9    R(2,14)                 2.6567         -DE/DX =    0.0                 !
 ! R10   R(4,12)                 2.4539         -DE/DX =    0.0                 !
 ! R11   R(5,12)                 2.4249         -DE/DX =    0.0                 !
 ! R12   R(6,7)                  1.0949         -DE/DX =    0.0                 !
 ! R13   R(6,8)                  1.0933         -DE/DX =    0.0                 !
 ! R14   R(6,9)                  1.0934         -DE/DX =    0.0                 !
 ! R15   R(10,11)                0.977          -DE/DX =    0.0                 !
 ! R16   R(12,13)                0.9705         -DE/DX =    0.0                 !
 ! R17   R(12,14)                0.9704         -DE/DX =    0.0                 !
 ! A1    A(2,1,3)              115.8731         -DE/DX =    0.0                 !
 ! A2    A(2,1,6)              121.0121         -DE/DX =    0.0                 !
 ! A3    A(2,1,10)              74.0219         -DE/DX =    0.0                 !
 ! A4    A(3,1,6)              115.4858         -DE/DX =    0.0                 !
 ! A5    A(3,1,10)             110.2999         -DE/DX =    0.0                 !
 ! A6    A(6,1,10)             112.1935         -DE/DX =    0.0                 !
 ! A7    A(1,2,4)              119.4312         -DE/DX =    0.0                 !
 ! A8    A(1,2,5)              119.9655         -DE/DX =    0.0                 !
 ! A9    A(1,2,12)             103.5556         -DE/DX =    0.0                 !
 ! A10   A(1,2,13)             100.0471         -DE/DX =    0.0                 !
 ! A11   A(1,2,14)             123.5657         -DE/DX =    0.0                 !
 ! A12   A(4,2,5)              119.793          -DE/DX =    0.0                 !
 ! A13   A(4,2,13)              72.4434         -DE/DX =    0.0                 !
 ! A14   A(4,2,14)              82.7722         -DE/DX =    0.0                 !
 ! A15   A(5,2,13)             105.7927         -DE/DX =    0.0                 !
 ! A16   A(5,2,14)              73.0144         -DE/DX =    0.0                 !
 ! A17   A(13,2,14)             33.6153         -DE/DX =    0.0                 !
 ! A18   A(1,6,7)              108.5073         -DE/DX =    0.0                 !
 ! A19   A(1,6,8)              110.2493         -DE/DX =    0.0                 !
 ! A20   A(1,6,9)              111.2604         -DE/DX =    0.0                 !
 ! A21   A(7,6,8)              108.2801         -DE/DX =    0.0                 !
 ! A22   A(7,6,9)              108.7896         -DE/DX =    0.0                 !
 ! A23   A(8,6,9)              109.6835         -DE/DX =    0.0                 !
 ! A24   A(1,10,11)            109.578          -DE/DX =    0.0                 !
 ! A25   A(4,12,5)              45.1164         -DE/DX =    0.0                 !
 ! A26   A(4,12,13)             84.7515         -DE/DX =    0.0                 !
 ! A27   A(4,12,14)             96.5367         -DE/DX =    0.0                 !
 ! A28   A(5,12,13)            129.7919         -DE/DX =    0.0                 !
 ! A29   A(5,12,14)             86.6765         -DE/DX =    0.0                 !
 ! A30   A(13,12,14)           104.8716         -DE/DX =    0.0                 !
 ! D1    D(3,1,2,4)            171.728          -DE/DX =    0.0                 !
 ! D2    D(3,1,2,5)            -18.5991         -DE/DX =    0.0                 !
 ! D3    D(3,1,2,12)            75.6479         -DE/DX =    0.0                 !
 ! D4    D(3,1,2,13)            96.3108         -DE/DX =    0.0                 !
 ! D5    D(3,1,2,14)            70.1329         -DE/DX =    0.0                 !
 ! D6    D(6,1,2,4)             23.5668         -DE/DX =    0.0                 !
 ! D7    D(6,1,2,5)           -166.7603         -DE/DX =    0.0                 !
 ! D8    D(6,1,2,12)           -72.5133         -DE/DX =    0.0                 !
 ! D9    D(6,1,2,13)           -51.8503         -DE/DX =    0.0                 !
 ! D10   D(6,1,2,14)           -78.0283         -DE/DX =    0.0                 !
 ! D11   D(10,1,2,4)           -83.0708         -DE/DX =    0.0                 !
 ! D12   D(10,1,2,5)            86.6021         -DE/DX =    0.0                 !
 ! D13   D(10,1,2,12)         -179.1509         -DE/DX =    0.0                 !
 ! D14   D(10,1,2,13)         -158.4879         -DE/DX =    0.0                 !
 ! D15   D(10,1,2,14)          175.3341         -DE/DX =    0.0                 !
 ! D16   D(2,1,6,7)             84.9569         -DE/DX =    0.0                 !
 ! D17   D(2,1,6,8)           -156.6157         -DE/DX =    0.0                 !
 ! D18   D(2,1,6,9)            -34.6935         -DE/DX =    0.0                 !
 ! D19   D(3,1,6,7)            -63.3196         -DE/DX =    0.0                 !
 ! D20   D(3,1,6,8)             55.1078         -DE/DX =    0.0                 !
 ! D21   D(3,1,6,9)            177.03           -DE/DX =    0.0                 !
 ! D22   D(10,1,6,7)           169.1236         -DE/DX =    0.0                 !
 ! D23   D(10,1,6,8)           -72.449          -DE/DX =    0.0                 !
 ! D24   D(10,1,6,9)            49.4731         -DE/DX =    0.0                 !
 ! D25   D(2,1,10,11)          -97.811          -DE/DX =    0.0                 !
 ! D26   D(3,1,10,11)           14.4025         -DE/DX =    0.0                 !
 ! D27   D(6,1,10,11)          144.6732         -DE/DX =    0.0                 !
 ! D28   D(5,4,12,2)            33.007          -DE/DX =    0.0                 !
 ! D29   D(13,4,12,2)         -143.9119         -DE/DX =    0.0                 !
 ! D30   D(14,4,12,2)          111.6759         -DE/DX =    0.0                 !
 ! D31   D(13,5,12,2)          -28.6207         -DE/DX =    0.0                 !
 ! D32   D(14,5,12,2)         -135.2522         -DE/DX =    0.0                 !
 ! D33   D(2,12,13,14)         111.041          -DE/DX =    0.0                 !
 --------------------------------------------------------------------------------
 GradGradGradGradGradGradGradGradGradGradGradGradGradGradGradGradGradGrad

 1\1\GINC-C60N14\Freq\RB3LYP\6-31++G(d,p)\C3H9O2(1+)\ROOT\26-Apr-2018\0
 \\#N Geom=AllCheck Guess=TCheck SCRF=Check GenChk RB3LYP/6-31++G(d,p) 
 Freq\\H3O-BACK-TERM\\1,1\C,0.0027418803,0.0166961056,-0.0381348951\C,0
 .0627464683,-0.0369956501,1.4176577803\H,0.9591017647,-0.0234088581,-0
 .5543264325\H,-0.8371424609,0.1335343303,1.9934536548\H,0.9527987875,-
 0.407346903,1.9084628175\C,-1.0757141544,0.7847976699,-0.7381790569\H,
 -0.7639192873,1.8317020747,-0.8134176815\H,-1.2209241763,0.396655632,-
 1.7499426687\H,-2.0185004137,0.7369037176,-0.186526709\O,-0.4410799626
 ,-1.3636323089,0.3425282141\H,0.3093288215,-1.9836277778,0.2585341355\
 O,0.7470250247,2.0075262506,1.9884051003\H,-0.0483437202,2.5636257861,
 1.9835818977\H,0.9991396935,1.9415734814,2.9231500727\\Version=EM64L-G
 09RevB.01\State=1-A\HF=-269.9954259\RMSD=2.285e-09\RMSF=1.760e-05\Zero
 Point=0.1221561\Thermal=0.1291955\Dipole=0.5793786,-0.2334971,1.109764
 2\DipoleDeriv=0.361474,-0.0621921,0.0625847,-0.107276,0.7686219,-0.463
 3386,0.1559188,-0.0034424,0.5683615,0.3806531,0.5211983,0.2557672,0.58
 94398,1.9474906,1.0577204,0.2130913,0.7409687,0.6494006,0.0051644,0.01
 07324,0.0369916,0.0567003,0.0508018,0.0254525,0.0257867,0.0267679,0.06
 65647,0.0914022,-0.0236968,-0.0038317,-0.0415404,0.0549316,-0.0377486,
 -0.026809,-0.0338952,0.101328,0.1169572,-0.0147736,-0.0214228,0.001427
 1,0.0354795,-0.040346,-0.0162618,-0.0293392,0.0847416,-0.0193653,0.086
 3597,-0.0585077,0.0469378,-0.0755818,0.0710655,-0.0532778,0.0985899,-0
 .0110826,0.0691773,-0.0591385,-0.0366066,-0.046577,-0.0492382,0.027828
 6,-0.0193864,0.0059771,0.120381,0.0778924,0.0498312,-0.0405222,0.00566
 04,0.0721938,-0.0864978,-0.0415709,-0.0550473,-0.0783259,-0.0596975,0.
 0224785,0.0545063,-0.0156998,0.114016,0.0328105,0.101722,0.0278879,0.0
 167883,-0.4084018,-0.1632848,-0.0951598,-0.227032,-1.8925427,-0.284332
 7,-0.2369387,-0.5445735,-0.895659,0.3242565,-0.1716476,-0.0470726,-0.0
 33567,0.5180444,0.0531393,-0.0208686,-0.0062186,0.3785163,-0.7271153,-
 0.2134516,-0.1336473,-0.2688605,-1.3163184,-0.2799563,-0.1331398,-0.19
 19829,-0.7293882,0.3482289,-0.0232912,-0.0128179,0.0372281,0.4122637,-
 0.0301696,0.0243777,-0.0646784,0.37745,0.4393738,0.0408758,0.0397388,0
 .0031593,0.3598377,-0.0456272,0.0273564,0.0289861,0.3509237\Polar=55.2
 092297,3.4127821,72.9049185,4.3790822,7.5017582,63.4361966\PG=C01 [X(C
 3H9O2)]\NImag=1\\0.62215150,-0.08830126,0.30289696,-0.07290138,-0.0700
 3120,0.62016423,-0.08196232,0.03611935,-0.00864114,0.66822658,0.029612
 06,0.01725164,0.00326178,-0.20366958,0.09311934,0.00612604,0.05179985,
 -0.32767712,-0.02849886,-0.09781709,0.62096314,-0.27886709,0.01348971,
 0.12115805,0.00739926,-0.00124171,-0.00438238,0.28940016,0.02201460,-0
 .04773695,-0.01301040,0.00846304,-0.00331050,-0.00302396,-0.01442874,0
 .05551945,0.11821996,-0.00364798,-0.11808518,0.02818259,-0.00248654,-0
 .01548522,-0.12720159,0.00040679,0.12379035,0.00195451,-0.00191381,-0.
 00306989,-0.27790400,0.04995137,0.14423012,0.00077414,-0.00032248,-0.0
 0074422,0.27722477,-0.01223061,0.00225384,0.00207688,0.04652094,-0.040
 55777,-0.01359318,0.00060903,0.00096903,0.00215116,-0.04501384,0.04805
 287,0.02248436,-0.00474620,-0.01277697,0.13470350,-0.02579153,-0.13790
 591,-0.00156540,-0.00152819,-0.00313145,-0.14397800,0.03007177,0.14342
 862,0.00762381,-0.00228079,0.00278248,-0.27314487,0.09689474,-0.113772
 85,0.00035128,-0.00076678,-0.00042742,-0.00830293,0.00654084,-0.010807
 88,0.27308862,0.00797646,-0.00501500,-0.00225231,0.10047238,-0.0734843
 3,0.06040214,-0.00045605,0.00026239,-0.00071242,0.00215799,0.00483909,
 0.00326755,-0.09622769,0.07941074,-0.02219186,0.00911220,-0.00991581,-
 0.11183641,0.04543187,-0.11599659,0.00013146,0.00058945,0.00153248,0.0
 1247372,-0.00414919,0.01097315,0.12209826,-0.04693272,0.12018910,-0.17
 597869,0.06226425,-0.05158169,-0.00294490,0.00120370,-0.00493055,-0.01
 551002,0.01546985,-0.01461653,0.00121044,-0.00043744,0.00122604,0.0006
 5202,-0.00022156,0.00068364,0.55132968,0.05150849,-0.09667067,0.023779
 03,-0.01102635,0.00311552,-0.00146897,0.00110145,0.00258055,-0.0000802
 1,0.00039744,0.00015215,0.00024217,0.00053531,0.00114913,-0.00277733,0
 .02958867,0.54585339,-0.04547018,0.03107991,-0.11530285,-0.02780630,0.
 01697395,-0.01719377,0.00951148,-0.00894993,0.00969264,-0.00060081,-0.
 00093018,0.00156668,0.00125963,0.00162203,-0.00356291,-0.03054727,0.02
 128260,0.57072195,0.00824007,0.01986591,0.00130121,0.00148394,0.000459
 31,0.00106892,0.00054244,-0.00096025,0.00069207,-0.00002030,-0.0000966
 6,-0.00018541,-0.00009176,-0.00006301,0.00010075,-0.06985103,-0.075076
 30,0.00366719,0.07069193,-0.00663521,-0.01628228,0.00015395,-0.0005018
 6,-0.00048029,-0.00033367,0.00024503,0.00079717,-0.00013304,0.00013281
 ,0.00000659,0.00014018,0.00005322,-0.00000681,0.00003027,-0.07268678,-
 0.29356226,0.01889149,0.07892414,0.31811935,0.00661895,0.01335101,-0.0
 0209769,0.00131712,0.00013265,0.00097874,-0.00001647,-0.00016871,0.000
 34775,-0.00013571,-0.00005515,-0.00010304,-0.00010278,-0.00000130,0.00
 015505,0.00338214,0.01781530,-0.04464546,-0.00311312,-0.02116242,0.045
 29693,-0.00352041,-0.01143197,-0.02490237,-0.00357354,0.00220811,-0.00
 065006,0.00090820,-0.00053755,0.00058614,-0.00000006,0.00005318,-0.000
 11212,0.00039265,0.00028103,-0.00101072,-0.05328894,-0.00977418,-0.029
 56918,-0.00188255,-0.00249375,-0.00768902,0.05350128,0.00250937,0.0039
 1302,0.02045905,0.00383423,-0.00128736,0.00200983,-0.00055794,0.000310
 45,-0.00054746,0.00000465,-0.00000190,-0.00016113,-0.00006073,-0.00022
 517,0.00090391,-0.01254770,-0.08044824,-0.09361700,-0.00338226,-0.0088
 9444,-0.02810867,0.01079325,0.08391002,-0.00136038,-0.00447810,-0.0153
 0027,-0.00322270,0.00081677,0.00041167,0.00006853,0.00047997,0.0007934
 7,-0.00006847,-0.00010356,0.00029461,0.00031189,0.00038888,-0.00049555
 ,-0.03186070,-0.09084453,-0.28051354,0.00077220,0.00102033,0.00391642,
 0.03737906,0.09806724,0.30189427,-0.02302126,-0.00216753,0.01271232,0.
 00051676,-0.00032271,0.00147797,-0.00128163,0.00258515,-0.00277194,0.0
 0015869,0.00024344,-0.00066605,0.00017873,-0.00019393,-0.00012371,-0.2
 4722362,-0.01033556,0.11703726,-0.00578713,0.00011170,0.00308583,0.005
 78528,0.00066101,-0.00277923,0.26883718,0.01758947,-0.00242387,-0.0090
 2971,-0.00021134,0.00071485,-0.00058210,0.00223010,-0.00091096,0.00216
 338,-0.00035876,-0.00007594,0.00012303,-0.00002724,0.00004481,-0.00000
 026,-0.01348385,-0.04711576,0.00737243,-0.02558038,0.00102378,0.015406
 27,0.01040482,0.00006241,-0.00489518,0.00984915,0.04688567,-0.01641310
 ,-0.00172070,0.00825793,-0.00113497,-0.00015149,0.00171169,-0.00201636
 ,0.00236355,-0.00087383,0.00041220,-0.00009108,0.00002832,0.00003695,-
 0.00008408,0.00011520,0.12110939,0.00717331,-0.12194918,0.00058382,-0.
 00012890,-0.00150846,0.02427227,0.00291217,-0.01192517,-0.12778805,-0.
 00920665,0.12581059,-0.08587961,-0.00782246,0.02197532,-0.03261197,0.0
 1228966,-0.00722011,-0.00474494,-0.03042336,-0.00266083,0.00561750,0.0
 1214760,0.00197962,-0.00273027,-0.01500038,-0.00074869,0.01235241,0.02
 408685,0.00288407,-0.00365995,0.00331562,-0.00335326,0.00159649,-0.001
 36818,0.00074227,0.00158920,-0.00036548,0.00103849,0.42670198,-0.04287
 517,-0.12988292,0.04093377,0.00435569,-0.01192051,-0.01083957,-0.00148
 189,-0.01162966,0.00206594,-0.00373157,-0.00714064,0.00063584,0.000610
 58,0.00119476,0.00228962,-0.00750380,-0.03147653,0.00693727,0.00551297
 ,-0.00085503,0.00261242,0.00089033,0.00226496,-0.00004077,-0.00007598,
 0.00157871,-0.00077898,-0.18685075,0.40672339,0.02085315,-0.01983009,-
 0.03170946,0.00112019,0.05171554,0.00104246,0.00413473,0.02285034,0.00
 069797,-0.00664153,-0.01263039,-0.00240702,-0.00169693,-0.01638142,-0.
 00287495,0.00502481,0.02043543,0.00181321,-0.00367671,0.00083030,-0.00
 116321,0.00172018,-0.00178584,0.00101216,-0.00025729,-0.00115556,0.000
 24481,-0.04897010,-0.00916322,0.06101942,0.01070530,-0.01466584,-0.001
 94848,0.00372037,-0.00124586,0.00338122,0.00095280,-0.00120363,0.00097
 871,-0.00030407,-0.00096964,0.00003009,0.00050500,-0.00032408,-0.00066
 408,-0.00084870,-0.00118542,-0.00030429,0.00056049,-0.00038762,0.00023
 035,0.00015045,0.00011103,0.00007985,0.00028249,-0.00003365,-0.0000620
 2,-0.31971587,0.23844839,0.03319178,0.30502836,0.02039562,-0.01708665,
 -0.00428872,0.00195224,-0.01295670,-0.00219410,0.00028874,0.00248174,0
 .00105370,0.00001571,-0.00015374,0.00033674,-0.00010106,0.00169984,-0.
 00065093,-0.00204457,-0.00379386,-0.00039360,0.00068806,-0.00003184,0.
 00051979,-0.00016055,0.00028014,-0.00017999,-0.00022429,0.00022314,-0.
 00019767,0.19534980,-0.19986438,-0.01738818,-0.21621189,0.22762695,-0.
 01444384,0.00555724,-0.00149272,0.01285950,-0.00648143,-0.00075230,0.0
 0006385,-0.00029557,0.00060270,-0.00142483,-0.00271965,-0.00029274,-0.
 00011904,0.00108550,-0.00014644,0.00196330,0.00453242,-0.00024158,-0.0
 0090902,0.00087951,-0.00074009,0.00007252,-0.00016213,0.00000559,0.000
 17888,-0.00018854,0.00011855,0.03660356,-0.02429925,-0.02279997,-0.033
 80083,0.02318244,0.02627207,-0.00134038,-0.00250716,0.00243288,-0.0122
 4208,0.01212273,0.00248691,0.00005096,0.00007228,-0.00020125,-0.000133
 91,-0.00700812,-0.00307297,0.00176859,0.00237163,0.00153640,0.00025223
 ,0.00023955,0.00011667,-0.00015518,-0.00002515,-0.00013772,-0.00003741
 ,-0.00000380,-0.00004720,-0.00001808,-0.00001109,-0.00003338,0.0021327
 6,-0.00578462,-0.00337328,-0.00092895,-0.00002796,-0.00101044,0.413710
 96,-0.00135780,-0.00946270,0.00690180,0.00941342,0.02900922,0.02061031
 ,0.00015198,0.00056966,-0.00033452,-0.00054466,-0.00829751,-0.00315165
 ,-0.00486059,-0.00866915,-0.00336955,0.00045090,0.00041149,-0.00006801
 ,-0.00025489,0.00026686,-0.00015792,-0.00022788,0.00008778,-0.00022368
 ,-0.00007538,0.00001900,-0.00007027,-0.00400637,-0.01668475,-0.0160954
 1,-0.00221935,0.00151176,-0.00114708,-0.25827949,0.20594535,-0.0017566
 5,-0.00612721,0.00601530,0.00238269,0.01734063,-0.00719803,0.00010012,
 0.00024746,0.00004153,-0.00041815,-0.00036996,0.00017252,0.00035318,-0
 .00004439,0.00018210,0.00039104,0.00024025,0.00002203,-0.00029541,-0.0
 0015781,-0.00020608,-0.00012212,0.00000048,-0.00010465,-0.00009344,0.0
 0001166,-0.00002568,-0.00201075,-0.01089947,-0.00546095,-0.00118713,0.
 00019996,-0.00060766,0.11693060,-0.02062636,0.52713013,0.00002401,-0.0
 0071710,0.00084947,0.00438806,0.00414515,0.00304772,0.00000007,0.00005
 163,-0.00003853,-0.00002927,-0.00043077,-0.00007524,-0.00054610,-0.001
 00101,-0.00045325,-0.00017248,-0.00009384,-0.00019165,-0.00005868,-0.0
 0002296,-0.00006749,-0.00005357,0.00001585,-0.00003702,-0.00002191,-0.
 00000605,-0.00001388,-0.00086593,-0.00194247,-0.00208005,-0.00017528,0
 .00017842,-0.00003553,-0.34478380,0.23333389,-0.02255473,0.35282431,0.
 00019120,-0.00048595,-0.00059136,0.00493940,-0.00366016,-0.00017210,0.
 00001742,0.00005138,0.00008193,-0.00049497,0.00018091,0.00059663,-0.00
 075503,-0.00093519,-0.00049609,-0.00018183,-0.00024302,-0.00032476,-0.
 00000706,-0.00009542,-0.00015987,0.00001789,0.00000796,0.00001967,-0.0
 0002987,-0.00002078,-0.00000492,-0.00088972,0.00059438,-0.00017895,0.0
 0013608,0.00008654,0.00020578,0.23490634,-0.16990850,0.00828819,-0.240
 69780,0.17651753,0.00010486,-0.00078175,0.00030477,0.00204326,0.001800
 03,0.00081961,0.00000107,0.00004530,0.00001937,0.00003798,-0.00013216,
 -0.00003841,-0.00023637,-0.00034025,-0.00016820,-0.00022158,-0.0003796
 4,-0.00046257,-0.00001455,0.00000495,-0.00023385,-0.00001140,0.0000460
 4,-0.00002131,-0.00000954,-0.00001026,-0.00000375,-0.00052437,-0.00081
 781,-0.00082988,-0.00006293,0.00009110,-0.00001053,0.02109234,-0.02213
 900,-0.04455230,0.01540489,-0.00346091,0.04710798,-0.00012945,0.000068
 70,-0.00016677,-0.00135130,-0.00240696,-0.00236409,0.00002435,-0.00001
 374,0.00000284,-0.00024551,0.00007204,0.00003946,0.00025524,0.00022822
 ,0.00000449,0.00002161,0.00003390,0.00001338,-0.00001229,-0.00002918,-
 0.00001880,0.00002212,-0.00000878,0.00002189,0.00000531,0.00000430,0.0
 0000864,0.00021820,0.00042830,0.00065103,0.00006762,-0.00009826,0.0000
 0191,-0.05827571,0.02847622,-0.09171924,-0.01052943,0.00284795,-0.0376
 0367,0.06992924,-0.00039723,-0.00126848,0.00163743,-0.00066155,0.00444
 704,-0.00479740,0.00003289,0.00004625,0.00001927,-0.00027989,-0.000226
 97,-0.00003520,0.00044523,-0.00026511,0.00001875,0.00013017,0.00004810
 ,0.00012380,-0.00002959,-0.00000537,-0.00002340,-0.00002272,0.00002035
 ,-0.00002706,-0.00002520,-0.00000504,-0.00001431,-0.00046283,-0.002901
 77,-0.00122254,-0.00024851,-0.00002294,-0.00014923,0.02393488,-0.02479
 853,0.01189657,0.00718707,-0.00208969,0.02607437,-0.02960272,0.0270221
 6,0.00013007,0.00046302,-0.00038416,-0.00146848,-0.00474514,-0.0037183
 8,0.00001289,-0.00000610,0.00005741,-0.00007242,0.00047470,0.00019163,
 0.00032088,-0.00001720,0.00001338,-0.00002203,0.00005017,0.00005535,0.
 00000805,-0.00003514,0.00000298,0.00003685,-0.00001648,0.00003229,-0.0
 0000301,-0.00000852,-0.00000100,0.00026478,0.00136420,0.00141541,0.000
 13775,-0.00009056,0.00008513,-0.13671956,0.03987134,-0.47540825,0.0062
 4529,-0.00380324,-0.00193091,0.13112895,-0.03350105,0.47958913\\0.0000
 1299,0.00000610,0.00000056,-0.00003065,-0.00001727,-0.00000892,0.00001
 790,-0.00000135,0.00001711,-0.00002223,-0.00000924,-0.00000909,-0.0000
 2526,-0.00000869,0.00001575,0.00002415,0.00000930,-0.00001419,0.000030
 59,0.00000938,-0.00000374,0.00004060,0.00001652,-0.00001862,0.00001490
 ,0.00001152,-0.00003052,-0.00000227,0.00000641,-0.00001123,-0.00000370
 ,0.00000068,-0.00000262,-0.00001616,0.00000622,0.00003448,-0.00000812,
 -0.00001358,0.00001107,-0.00003274,-0.00001599,0.00001995\\\@


 DESK:  A WASTEBASKET WITH DRAWERS.
 Job cpu time:  0 days  0 hours 14 minutes 18.3 seconds.
 File lengths (MBytes):  RWF=   1408 Int=      0 D2E=      0 Chk=     32 Scr=     32
 Normal termination of Gaussian 09 at Thu Apr 26 15:44:18 2018.
