 Entering Gaussian System, Link 0=g09
 Input=OH-mid.gjf
 Output=OH-mid.log
 Initial command:
 /share/home/zxchen/g09/l1.exe /scratch/zxchen/Gau-25704.inp -scrdir=/scratch/zxchen/
 Entering Link 1 = /share/home/zxchen/g09/l1.exe PID=     25705.
  
 Copyright (c) 1988,1990,1992,1993,1995,1998,2003,2009,2010,
            Gaussian, Inc.  All Rights Reserved.
  
 This is part of the Gaussian(R) 09 program.  It is based on
 the Gaussian(R) 03 system (copyright 2003, Gaussian, Inc.),
 the Gaussian(R) 98 system (copyright 1998, Gaussian, Inc.),
 the Gaussian(R) 94 system (copyright 1995, Gaussian, Inc.),
 the Gaussian 92(TM) system (copyright 1992, Gaussian, Inc.),
 the Gaussian 90(TM) system (copyright 1990, Gaussian, Inc.),
 the Gaussian 88(TM) system (copyright 1988, Gaussian, Inc.),
 the Gaussian 86(TM) system (copyright 1986, Carnegie Mellon
 University), and the Gaussian 82(TM) system (copyright 1983,
 Carnegie Mellon University). Gaussian is a federally registered
 trademark of Gaussian, Inc.
  
 This software contains proprietary and confidential information,
 including trade secrets, belonging to Gaussian, Inc.
  
 This software is provided under written license and may be
 used, copied, transmitted, or stored only in accord with that
 written license.
  
 The following legend is applicable only to US Government
 contracts under FAR:
  
                    RESTRICTED RIGHTS LEGEND
  
 Use, reproduction and disclosure by the US Government is
 subject to restrictions as set forth in subparagraphs (a)
 and (c) of the Commercial Computer Software - Restricted
 Rights clause in FAR 52.227-19.
  
 Gaussian, Inc.
 340 Quinnipiac St., Bldg. 40, Wallingford CT 06492
  
  
 ---------------------------------------------------------------
 Warning -- This program may not be used in any manner that
 competes with the business of Gaussian, Inc. or will provide
 assistance to any competitor of Gaussian, Inc.  The licensee
 of this program is prohibited from giving any competitor of
 Gaussian, Inc. access to this program.  By using this program,
 the user acknowledges that Gaussian, Inc. is engaged in the
 business of creating and licensing software in the field of
 computational chemistry and represents and warrants to the
 licensee that it is not a competitor of Gaussian, Inc. and that
 it will not use this program in any manner prohibited above.
 ---------------------------------------------------------------
  

 Cite this work as:
 Gaussian 09, Revision B.01,
 M. J. Frisch, G. W. Trucks, H. B. Schlegel, G. E. Scuseria, 
 M. A. Robb, J. R. Cheeseman, G. Scalmani, V. Barone, B. Mennucci, 
 G. A. Petersson, H. Nakatsuji, M. Caricato, X. Li, H. P. Hratchian, 
 A. F. Izmaylov, J. Bloino, G. Zheng, J. L. Sonnenberg, M. Hada, 
 M. Ehara, K. Toyota, R. Fukuda, J. Hasegawa, M. Ishida, T. Nakajima, 
 Y. Honda, O. Kitao, H. Nakai, T. Vreven, J. A. Montgomery, Jr., 
 J. E. Peralta, F. Ogliaro, M. Bearpark, J. J. Heyd, E. Brothers, 
 K. N. Kudin, V. N. Staroverov, T. Keith, R. Kobayashi, J. Normand, 
 K. Raghavachari, A. Rendell, J. C. Burant, S. S. Iyengar, J. Tomasi, 
 M. Cossi, N. Rega, J. M. Millam, M. Klene, J. E. Knox, J. B. Cross, 
 V. Bakken, C. Adamo, J. Jaramillo, R. Gomperts, R. E. Stratmann, 
 O. Yazyev, A. J. Austin, R. Cammi, C. Pomelli, J. W. Ochterski, 
 R. L. Martin, K. Morokuma, V. G. Zakrzewski, G. A. Voth, 
 P. Salvador, J. J. Dannenberg, S. Dapprich, A. D. Daniels, 
 O. Farkas, J. B. Foresman, J. V. Ortiz, J. Cioslowski, 
 and D. J. Fox, Gaussian, Inc., Wallingford CT, 2010.
 
 ******************************************
 Gaussian 09:  EM64L-G09RevB.01 12-Aug-2010
                26-Apr-2018 
 ******************************************
 %chk=OH-mid.chk
 %mem=4GB
 %nprocshared=24
 Will use up to   24 processors via shared memory.
 ----------------------------------------------------------------------
 # scrf=(smd,solvent=water) opt=(ts,noeigen,calcfc) freq b3lyp/6-31++g(
 d,p)
 ----------------------------------------------------------------------
 1/5=1,10=4,11=1,14=-1,18=20,26=3,38=1/1,3;
 2/9=110,12=2,17=6,18=5,40=1/2;
 3/5=1,6=6,7=1111,11=2,16=1,25=1,30=1,70=32201,71=2,72=1,74=-5/1,2,3;
 4//1;
 5/5=2,38=5,53=1/2;
 8/6=4,10=90,11=11/1;
 11/6=1,8=1,9=11,15=111,16=1/1,2,10;
 10/6=1,7=6,13=1/2;
 6/7=2,8=2,9=2,10=2,28=1/1;
 7/10=1,18=20,25=1/1,2,3,16;
 1/5=1,10=4,11=1,14=-1,18=20/3(2);
 2/9=110/2;
 99//99;
 2/9=110/2;
 3/5=1,6=6,7=1111,11=2,16=1,25=1,30=1,70=32205,71=1,72=1,74=-5/1,2,3;
 4/5=5,16=3/1;
 5/5=2,38=5,53=1/2;
 7//1,2,3,16;
 1/5=1,11=1,14=-1,18=20/3(-5);
 2/9=110/2;
 6/7=2,8=2,9=2,10=2,19=2,28=1/1;
 99/9=1/99;
 -----------
 OH-BACK-MID
 -----------
 Symbolic Z-matrix:
 Charge = -1 Multiplicity = 1
 C
 C                    1    B1
 O                    2    B2       1    A1
 H                    1    B3       2    A2       3    D1       0
 H                    2    B4       1    A3       3    D2       0
 H                    2    B5       1    A4       3    D3       0
 C                    1    B6       2    A5       3    D4       0
 H                    7    B7       1    A6       2    D5       0
 H                    7    B8       1    A7       2    D6       0
 H                    7    B9       1    A8       2    D7       0
 O                    1    B10      2    A9       3    D8       0
 H                    11   B11      1    A10      2    D9       0
       Variables:
  B1                    1.45086                  
  B2                    1.40589                  
  B3                    1.0776                   
  B4                    1.1027                   
  B5                    1.10225                  
  B6                    1.49877                  
  B7                    1.09332                  
  B8                    1.09769                  
  B9                    1.09566                  
  B10                   2.26021                  
  B11                   0.96916                  
  A1                   77.29062                  
  A2                  117.56362                  
  A3                  116.55668                  
  A4                  117.18258                  
  A5                  122.53301                  
  A6                  107.88564                  
  A7                  111.01286                  
  A8                  110.50609                  
  A9                  108.18573                  
  A10                 109.9695                   
  D1                  -84.10507                  
  D2                 -113.00375                  
  D3                  113.14283                  
  D4                   84.75204                  
  D5                  122.37172                  
  D6                 -117.0018                   
  D7                    2.77306                  
  D8                 -173.17161                  
  D9                   38.76515                  
 

 GradGradGradGradGradGradGradGradGradGradGradGradGradGradGradGradGradGrad
 Berny optimization.
 Initialization pass.
                           ----------------------------
                           !    Initial Parameters    !
                           ! (Angstroms and Degrees)  !
 --------------------------                            --------------------------
 ! Name  Definition              Value          Derivative Info.                !
 --------------------------------------------------------------------------------
 ! R1    R(1,2)                  1.4509         calculate D2E/DX2 analytically  !
 ! R2    R(1,3)                  1.7844         calculate D2E/DX2 analytically  !
 ! R3    R(1,4)                  1.0776         calculate D2E/DX2 analytically  !
 ! R4    R(1,7)                  1.4988         calculate D2E/DX2 analytically  !
 ! R5    R(1,11)                 2.2602         calculate D2E/DX2 analytically  !
 ! R6    R(1,12)                 2.7466         calculate D2E/DX2 analytically  !
 ! R7    R(2,3)                  1.4059         calculate D2E/DX2 analytically  !
 ! R8    R(2,5)                  1.1027         calculate D2E/DX2 analytically  !
 ! R9    R(2,6)                  1.1023         calculate D2E/DX2 analytically  !
 ! R10   R(4,11)                 2.3451         calculate D2E/DX2 analytically  !
 ! R11   R(7,8)                  1.0933         calculate D2E/DX2 analytically  !
 ! R12   R(7,9)                  1.0977         calculate D2E/DX2 analytically  !
 ! R13   R(7,10)                 1.0957         calculate D2E/DX2 analytically  !
 ! R14   R(7,11)                 2.7117         calculate D2E/DX2 analytically  !
 ! R15   R(8,11)                 2.2209         calculate D2E/DX2 analytically  !
 ! R16   R(11,12)                0.9692         calculate D2E/DX2 analytically  !
 ! A1    A(2,1,4)              117.5636         calculate D2E/DX2 analytically  !
 ! A2    A(2,1,7)              122.533          calculate D2E/DX2 analytically  !
 ! A3    A(2,1,11)             108.1857         calculate D2E/DX2 analytically  !
 ! A4    A(2,1,12)              92.7953         calculate D2E/DX2 analytically  !
 ! A5    A(3,1,4)              103.065          calculate D2E/DX2 analytically  !
 ! A6    A(3,1,7)              106.5457         calculate D2E/DX2 analytically  !
 ! A7    A(3,1,11)             157.6198         calculate D2E/DX2 analytically  !
 ! A8    A(3,1,12)             139.27           calculate D2E/DX2 analytically  !
 ! A9    A(4,1,7)              118.9764         calculate D2E/DX2 analytically  !
 ! A10   A(4,1,12)              77.248          calculate D2E/DX2 analytically  !
 ! A11   A(7,1,12)             108.4991         calculate D2E/DX2 analytically  !
 ! A12   A(1,2,5)              116.5567         calculate D2E/DX2 analytically  !
 ! A13   A(1,2,6)              117.1826         calculate D2E/DX2 analytically  !
 ! A14   A(3,2,5)              116.0628         calculate D2E/DX2 analytically  !
 ! A15   A(3,2,6)              116.2032         calculate D2E/DX2 analytically  !
 ! A16   A(5,2,6)              110.306          calculate D2E/DX2 analytically  !
 ! A17   A(1,7,8)              107.8856         calculate D2E/DX2 analytically  !
 ! A18   A(1,7,9)              111.0129         calculate D2E/DX2 analytically  !
 ! A19   A(1,7,10)             110.5061         calculate D2E/DX2 analytically  !
 ! A20   A(8,7,9)              110.0264         calculate D2E/DX2 analytically  !
 ! A21   A(8,7,10)             109.4316         calculate D2E/DX2 analytically  !
 ! A22   A(9,7,10)             107.9739         calculate D2E/DX2 analytically  !
 ! A23   A(9,7,11)             135.3541         calculate D2E/DX2 analytically  !
 ! A24   A(10,7,11)            116.5505         calculate D2E/DX2 analytically  !
 ! A25   A(1,11,8)              56.1464         calculate D2E/DX2 analytically  !
 ! A26   A(4,11,7)              51.7133         calculate D2E/DX2 analytically  !
 ! A27   A(4,11,8)              69.7083         calculate D2E/DX2 analytically  !
 ! A28   A(4,11,12)            102.1912         calculate D2E/DX2 analytically  !
 ! A29   A(7,11,12)            141.4455         calculate D2E/DX2 analytically  !
 ! A30   A(8,11,12)            163.1397         calculate D2E/DX2 analytically  !
 ! D1    D(4,1,2,5)            162.8912         calculate D2E/DX2 analytically  !
 ! D2    D(4,1,2,6)             29.0378         calculate D2E/DX2 analytically  !
 ! D3    D(7,1,2,5)            -28.2517         calculate D2E/DX2 analytically  !
 ! D4    D(7,1,2,6)           -162.1051         calculate D2E/DX2 analytically  !
 ! D5    D(11,1,2,5)            73.8246         calculate D2E/DX2 analytically  !
 ! D6    D(11,1,2,6)           -60.0288         calculate D2E/DX2 analytically  !
 ! D7    D(12,1,2,5)            85.8237         calculate D2E/DX2 analytically  !
 ! D8    D(12,1,2,6)           -48.0297         calculate D2E/DX2 analytically  !
 ! D9    D(2,1,7,8)            122.3717         calculate D2E/DX2 analytically  !
 ! D10   D(2,1,7,9)           -117.0018         calculate D2E/DX2 analytically  !
 ! D11   D(2,1,7,10)             2.7731         calculate D2E/DX2 analytically  !
 ! D12   D(3,1,7,8)            175.3513         calculate D2E/DX2 analytically  !
 ! D13   D(3,1,7,9)            -64.0222         calculate D2E/DX2 analytically  !
 ! D14   D(3,1,7,10)            55.7527         calculate D2E/DX2 analytically  !
 ! D15   D(4,1,7,8)            -68.9219         calculate D2E/DX2 analytically  !
 ! D16   D(4,1,7,9)             51.7046         calculate D2E/DX2 analytically  !
 ! D17   D(4,1,7,10)           171.4795         calculate D2E/DX2 analytically  !
 ! D18   D(12,1,7,8)            16.4444         calculate D2E/DX2 analytically  !
 ! D19   D(12,1,7,9)           137.0709         calculate D2E/DX2 analytically  !
 ! D20   D(12,1,7,10)         -103.1542         calculate D2E/DX2 analytically  !
 ! D21   D(2,1,11,8)          -130.4572         calculate D2E/DX2 analytically  !
 ! D22   D(3,1,11,8)          -144.3439         calculate D2E/DX2 analytically  !
 ! D23   D(9,7,11,4)           -56.3787         calculate D2E/DX2 analytically  !
 ! D24   D(9,7,11,12)         -112.4071         calculate D2E/DX2 analytically  !
 ! D25   D(10,7,11,4)          128.2119         calculate D2E/DX2 analytically  !
 ! D26   D(10,7,11,12)          72.1835         calculate D2E/DX2 analytically  !
 --------------------------------------------------------------------------------
 Trust Radius=3.00D-01 FncErr=1.00D-07 GrdErr=1.00D-06
 Number of steps in this run=     82 maximum allowed number of steps=    100.
 Search for a saddle point of order  1.
 GradGradGradGradGradGradGradGradGradGradGradGradGradGradGradGradGradGrad

                          Input orientation:                          
 ---------------------------------------------------------------------
 Center     Atomic      Atomic             Coordinates (Angstroms)
 Number     Number       Type             X           Y           Z
 ---------------------------------------------------------------------
      1          6           0        0.000000    0.000000    0.000000
      2          6           0        0.000000    0.000000    1.450858
      3          8           0        1.371440    0.000000    1.141554
      4          1           0        0.098113    0.950238   -0.498641
      5          1           0       -0.385460   -0.907921    1.943856
      6          1           0       -0.385367    0.901612    1.954398
      7          6           0        0.115576   -1.258292   -0.806019
      8          1           0       -0.761034   -1.322237   -1.456264
      9          1           0        1.032210   -1.256091   -1.409921
     10          1           0        0.146153   -2.134004   -0.148243
     11          8           0       -2.132082    0.255307   -0.705408
     12          1           0       -2.596589    0.885340   -0.133946
 ---------------------------------------------------------------------
                    Distance matrix (angstroms):
                    1          2          3          4          5
     1  C    0.000000
     2  C    1.450858   0.000000
     3  O    1.784375   1.405886   0.000000
     4  H    1.077599   2.170973   2.283540   0.000000
     5  H    2.179788   1.102700   2.134176   3.106829   0.000000
     6  H    2.186569   1.102255   2.135413   2.500703   1.809564
     7  C    1.498774   2.586532   2.636956   2.229886   2.817021
     8  H    2.109073   3.283114   3.611705   2.611382   3.445798
     9  H    2.151999   3.290482   2.864065   2.563368   3.657708
    10  H    2.144134   2.670666   2.778288   3.104454   2.482493
    11  O    2.260211   3.043097   3.968768   2.345090   3.379702
    12  H    2.746642   3.168233   4.260983   2.720042   3.524505
                    6          7          8          9         10
     6  H    0.000000
     7  C    3.540626   0.000000
     8  H    4.088917   1.093321   0.000000
     9  H    4.240737   1.097689   1.795061   0.000000
    10  H    3.730762   1.095662   1.786860   1.774164   0.000000
    11  O    3.247043   2.711654   2.220856   3.576787   3.348073
    12  H    3.041537   3.521744   3.160884   4.402501   4.079127
                   11         12
    11  O    0.000000
    12  H    0.969163   0.000000
 Stoichiometry    C3H7O2(1-)
 Framework group  C1[X(C3H7O2)]
 Deg. of freedom    30
 Full point group                 C1      NOp   1
 Largest Abelian subgroup         C1      NOp   1
 Largest concise Abelian subgroup C1      NOp   1
                         Standard orientation:                         
 ---------------------------------------------------------------------
 Center     Atomic      Atomic             Coordinates (Angstroms)
 Number     Number       Type             X           Y           Z
 ---------------------------------------------------------------------
      1          6           0       -0.051085    0.074117   -0.329619
      2          6           0       -0.872504   -0.872030    0.401862
      3          8           0       -1.826132   -0.103332   -0.288220
      4          1           0        0.193758   -0.163976   -1.351668
      5          1           0       -0.875728   -0.775945    1.500363
      6          1           0       -0.799351   -1.932660    0.110867
      7          6           0        0.252815    1.447117    0.188878
      8          1           0        1.339526    1.549380    0.251748
      9          1           0       -0.159601    2.218503   -0.474294
     10          1           0       -0.184645    1.587280    1.183593
     11          8           0        2.114697   -0.509565   -0.051664
     12          1           0        2.202160   -1.474631   -0.068261
 ---------------------------------------------------------------------
 Rotational constants (GHZ):      7.6603846      3.2853662      2.5507099
 Standard basis: 6-31++G(d,p) (6D, 7F)
 There are   137 symmetry adapted basis functions of A   symmetry.
 Integral buffers will be    131072 words long.
 Raffenetti 2 integral format.
 Two-electron integral symmetry is turned on.
   137 basis functions,   216 primitive gaussians,   137 cartesian basis functions
    21 alpha electrons       21 beta electrons
       nuclear repulsion energy       176.5465606331 Hartrees.
 NAtoms=   12 NActive=   12 NUniq=   12 SFac= 1.00D+00 NAtFMM=   50 NAOKFM=F Big=F
 ------------------------------------------------------------------------------
 Polarizable Continuum Model (PCM)
 =================================
 Model                : PCM.
 Atomic radii         : SMD-Coulomb.
 Polarization charges : Total charges.
 Charge compensation  : None.
 Solution method      : Matrix inversion.
 Cavity type          : VdW (van der Waals Surface) (Alpha=1.000).
 Cavity algorithm     : GePol (No added spheres)
                        Default sphere list used, NSphG=   12.
                        Lebedev-Laikov grids with approx.  5.0 points / Ang**2.
                        Smoothing algorithm: Karplus/York (Gamma=1.0000).
                        Polarization charges: spherical gaussians, with
                                              point-specific exponents (IZeta= 3).
                        Self-potential: point-specific (ISelfS= 7).
                        Self-field    : sphere-specific E.n sum rule (ISelfD= 2).
 1st derivatives      : Analytical E(r).r(x)/FMM algorithm (CHGder, D1EAlg=3).
                        Cavity 1st derivative terms included.
 2nd derivatives      : Analytical E(r).r(xy)/FMM algorithm (CHGder, D2EAlg=3).
                        Cavity 2nd derivative terms included.
 Solvent              : Water, Eps=  78.355300 Eps(inf)=   1.777849
 ------------------------------------------------------------------------------
 Spheres list:
 ISph  on   Nord    Re0     Alpha      Xe            Ye            Ze
    1   C      1    1.850   1.000     -0.051085      0.074117     -0.329619
    2   C      2    1.850   1.000     -0.872504     -0.872030      0.401862
    3   O      3    1.520   1.000     -1.826132     -0.103332     -0.288220
    4   H      4    1.200   1.000      0.193758     -0.163976     -1.351668
    5   H      5    1.200   1.000     -0.875728     -0.775945      1.500363
    6   H      6    1.200   1.000     -0.799351     -1.932660      0.110867
    7   C      7    1.850   1.000      0.252815      1.447117      0.188878
    8   H      8    1.200   1.000      1.339526      1.549380      0.251748
    9   H      9    1.200   1.000     -0.159601      2.218503     -0.474294
   10   H     10    1.200   1.000     -0.184645      1.587280      1.183593
   11   O     11    1.520   1.000      2.114697     -0.509565     -0.051664
   12   H     12    1.200   1.000      2.202160     -1.474631     -0.068261
 ------------------------------------------------------------------------------
 ------------------------------------------------------------------------------
 Atomic radii for non-electrostatic terms: SMD-CDS.
 ------------------------------------------------------------------------------
 Nuclear repulsion after PCM non-electrostatic terms =      176.5509528626 Hartrees.
 One-electron integrals computed using PRISM.
 NBasis=   137 RedAO= T  NBF=   137
 NBsUse=   137 1.00D-06 NBFU=   137
 Harris functional with IExCor=  402 diagonalized for initial guess.
 ExpMin= 3.60D-02 ExpMax= 5.48D+03 ExpMxC= 8.25D+02 IAcc=3 IRadAn=         0 AccDes= 0.00D+00
 HarFok:  IExCor=  402 AccDes= 0.00D+00 IRadAn=         0 IDoV= 1
 ScaDFX=  1.000000  1.000000  1.000000  1.000000
 FoFCou: FMM=F IPFlag=           0 FMFlag=      100000 FMFlg1=           0
         NFxFlg=           0 DoJE=T BraDBF=F KetDBF=T FulRan=T
         Omega=  0.000000  0.000000  1.000000  0.000000  0.000000 ICntrl=     500 IOpCl=  0
         NMat0=    1 NMatS0=    1 NMatT0=    0 NMatD0=    1 NMtDS0=    0 NMtDT0=    0
         I1Cent=           4 NGrid=           0.
 Petite list used in FoFCou.
 Initial guess orbital symmetries:
       Occupied  (A) (A) (A) (A) (A) (A) (A) (A) (A) (A) (A) (A)
                 (A) (A) (A) (A) (A) (A) (A) (A) (A)
       Virtual   (A) (A) (A) (A) (A) (A) (A) (A) (A) (A) (A) (A)
                 (A) (A) (A) (A) (A) (A) (A) (A) (A) (A) (A) (A)
                 (A) (A) (A) (A) (A) (A) (A) (A) (A) (A) (A) (A)
                 (A) (A) (A) (A) (A) (A) (A) (A) (A) (A) (A) (A)
                 (A) (A) (A) (A) (A) (A) (A) (A) (A) (A) (A) (A)
                 (A) (A) (A) (A) (A) (A) (A) (A) (A) (A) (A) (A)
                 (A) (A) (A) (A) (A) (A) (A) (A) (A) (A) (A) (A)
                 (A) (A) (A) (A) (A) (A) (A) (A) (A) (A) (A) (A)
                 (A) (A) (A) (A) (A) (A) (A) (A) (A) (A) (A) (A)
                 (A) (A) (A) (A) (A) (A) (A) (A)
 The electronic state of the initial guess is 1-A.
 Requested convergence on RMS density matrix=1.00D-08 within 128 cycles.
 Requested convergence on MAX density matrix=1.00D-06.
 Requested convergence on             energy=1.00D-06.
 No special actions if energy rises.
 Keep R1 ints in memory in canonical form, NReq=48838767.
 Error on total polarization charges =  0.07525
 SCF Done:  E(RB3LYP) =  -269.056234780     A.U. after   13 cycles
             Convg  =    0.5415D-08             -V/T =  2.0096
 SMD-CDS (non-electrostatic) energy       (kcal/mol) =       2.76
 (included in total energy above)
 Range of M.O.s used for correlation:     1   137
 NBasis=   137 NAE=    21 NBE=    21 NFC=     0 NFV=     0
 NROrb=    137 NOA=    21 NOB=    21 NVA=   116 NVB=   116

 **** Warning!!: The largest alpha MO coefficient is  0.51106160D+02

 Symmetrizing basis deriv contribution to polar:
 IMax=3 JMax=2 DiffMx= 0.00D+00
 G2DrvN: will do    13 centers at a time, making    1 passes doing MaxLOS=2.
 Calling FoFCou, ICntrl=  3107 FMM=F I1Cent=   0 AccDes= 0.00D+00.
 FoFDir/FoFCou used for L=0 through L=2.
 G2PCM: DoFxE=T DoFxN=T DoGrad=T DoPD/DQ/DG=FFF NFrqRd=   0 IEInf=0 DoCFld=F IF1Alg=4.
 End of G2Drv Frequency-dependent properties file   721 does not exist.
 End of G2Drv Frequency-dependent properties file   722 does not exist.
          IDoAtm=111111111111
 NEqPCM:  Using equilibrium solvation (IEInf=0, Eps=  78.3553, EpsInf=   1.7778)
          Differentiating once with respect to nuclear coordinates.
          Keep R1 ints in memory in canonical form, NReq=45508149.
          There are    39 degrees of freedom in the 1st order CPHF.  IDoFFX=5.
     33 vectors produced by pass  0 Test12= 6.25D-11 2.56D-07 XBig12= 1.69D-01 1.98D-01.
 AX will form    33 AO Fock derivatives at one time.
     33 vectors produced by pass  1 Test12= 6.25D-11 2.56D-07 XBig12= 2.19D-02 4.05D-02.
     33 vectors produced by pass  2 Test12= 6.25D-11 2.56D-07 XBig12= 2.38D-04 2.69D-03.
     33 vectors produced by pass  3 Test12= 6.25D-11 2.56D-07 XBig12= 7.88D-07 1.98D-04.
     16 vectors produced by pass  4 Test12= 6.25D-11 2.56D-07 XBig12= 1.70D-09 6.17D-06.
 Inverted reduced A of dimension   148 with in-core refinement.
 End of Minotr Frequency-dependent properties file   721 does not exist.
 End of Minotr Frequency-dependent properties file   722 does not exist.

 **********************************************************************

            Population analysis using the SCF density.

 **********************************************************************

 Orbital symmetries:
       Occupied  (A) (A) (A) (A) (A) (A) (A) (A) (A) (A) (A) (A)
                 (A) (A) (A) (A) (A) (A) (A) (A) (A)
       Virtual   (A) (A) (A) (A) (A) (A) (A) (A) (A) (A) (A) (A)
                 (A) (A) (A) (A) (A) (A) (A) (A) (A) (A) (A) (A)
                 (A) (A) (A) (A) (A) (A) (A) (A) (A) (A) (A) (A)
                 (A) (A) (A) (A) (A) (A) (A) (A) (A) (A) (A) (A)
                 (A) (A) (A) (A) (A) (A) (A) (A) (A) (A) (A) (A)
                 (A) (A) (A) (A) (A) (A) (A) (A) (A) (A) (A) (A)
                 (A) (A) (A) (A) (A) (A) (A) (A) (A) (A) (A) (A)
                 (A) (A) (A) (A) (A) (A) (A) (A) (A) (A) (A) (A)
                 (A) (A) (A) (A) (A) (A) (A) (A) (A) (A) (A) (A)
                 (A) (A) (A) (A) (A) (A) (A) (A)
 The electronic state is 1-A.
 Alpha  occ. eigenvalues --  -19.12276 -19.06658 -10.24200 -10.21987 -10.17287
 Alpha  occ. eigenvalues --   -0.98904  -0.87335  -0.74650  -0.65335  -0.57360
 Alpha  occ. eigenvalues --   -0.47964  -0.44179  -0.41653  -0.39181  -0.36091
 Alpha  occ. eigenvalues --   -0.35372  -0.34844  -0.28461  -0.25010  -0.23404
 Alpha  occ. eigenvalues --   -0.22035
 Alpha virt. eigenvalues --    0.00247   0.00805   0.02268   0.02594   0.03857
 Alpha virt. eigenvalues --    0.05479   0.06223   0.06583   0.07105   0.09795
 Alpha virt. eigenvalues --    0.10347   0.11982   0.13358   0.13881   0.14494
 Alpha virt. eigenvalues --    0.15085   0.15505   0.16385   0.16835   0.18503
 Alpha virt. eigenvalues --    0.20308   0.20995   0.22081   0.22773   0.23934
 Alpha virt. eigenvalues --    0.24643   0.25749   0.26512   0.28875   0.30773
 Alpha virt. eigenvalues --    0.31541   0.33450   0.34505   0.36526   0.37718
 Alpha virt. eigenvalues --    0.39595   0.41904   0.43119   0.63180   0.68459
 Alpha virt. eigenvalues --    0.72262   0.74232   0.75897   0.79425   0.79801
 Alpha virt. eigenvalues --    0.83830   0.88288   0.95998   0.98332   0.99715
 Alpha virt. eigenvalues --    1.04228   1.07211   1.07662   1.11575   1.14909
 Alpha virt. eigenvalues --    1.20217   1.22206   1.23079   1.26188   1.29738
 Alpha virt. eigenvalues --    1.32063   1.38806   1.39766   1.41380   1.48174
 Alpha virt. eigenvalues --    1.53862   1.60781   1.65304   1.68244   1.68603
 Alpha virt. eigenvalues --    1.72950   1.76790   1.82125   1.87764   1.89226
 Alpha virt. eigenvalues --    1.93565   1.98377   2.01616   2.05516   2.06279
 Alpha virt. eigenvalues --    2.10119   2.13353   2.14066   2.18030   2.18585
 Alpha virt. eigenvalues --    2.31586   2.35171   2.39067   2.43298   2.51089
 Alpha virt. eigenvalues --    2.55184   2.56768   2.59447   2.65054   2.68282
 Alpha virt. eigenvalues --    2.71905   2.74786   2.75192   2.81206   2.86954
 Alpha virt. eigenvalues --    2.89156   2.90898   2.94748   3.01416   3.27367
 Alpha virt. eigenvalues --    3.31129   3.43845   3.46443   3.48893   3.51482
 Alpha virt. eigenvalues --    3.57718   4.20905   4.26735   4.40758   4.56016
 Alpha virt. eigenvalues --    4.66380
          Condensed to atoms (all electrons):
              1          2          3          4          5          6
     1  C    8.067984  -0.822935  -0.255107   0.461980   0.012128  -0.174561
     2  C   -0.822935   5.654262   0.119730  -0.057873   0.389265   0.482700
     3  O   -0.255107   0.119730   8.799632  -0.023160  -0.049983  -0.049076
     4  H    0.461980  -0.057873  -0.023160   0.519944   0.014912  -0.029610
     5  H    0.012128   0.389265  -0.049983   0.014912   0.613093  -0.066799
     6  H   -0.174561   0.482700  -0.049076  -0.029610  -0.066799   0.620848
     7  C   -1.138825   0.348126   0.112286  -0.063544  -0.055673   0.066230
     8  H   -0.171612   0.028111   0.011677  -0.014093  -0.007422   0.003840
     9  H   -0.031160   0.014379  -0.011978  -0.002552   0.002551  -0.000313
    10  H   -0.076741   0.005020  -0.004928   0.004327   0.003800  -0.001281
    11  O   -0.305555   0.093738   0.032054  -0.031432   0.003862   0.004609
    12  H    0.006121  -0.008428   0.000075  -0.001536  -0.001044   0.000447
              7          8          9         10         11         12
     1  C   -1.138825  -0.171612  -0.031160  -0.076741  -0.305555   0.006121
     2  C    0.348126   0.028111   0.014379   0.005020   0.093738  -0.008428
     3  O    0.112286   0.011677  -0.011978  -0.004928   0.032054   0.000075
     4  H   -0.063544  -0.014093  -0.002552   0.004327  -0.031432  -0.001536
     5  H   -0.055673  -0.007422   0.002551   0.003800   0.003862  -0.001044
     6  H    0.066230   0.003840  -0.000313  -0.001281   0.004609   0.000447
     7  C    6.070396   0.508957   0.378699   0.430793   0.035699   0.014067
     8  H    0.508957   0.493864  -0.018397  -0.020716   0.002984  -0.001798
     9  H    0.378699  -0.018397   0.519764  -0.025522   0.006156  -0.000361
    10  H    0.430793  -0.020716  -0.025522   0.499253  -0.007338   0.000688
    11  O    0.035699   0.002984   0.006156  -0.007338   9.131947   0.211560
    12  H    0.014067  -0.001798  -0.000361   0.000688   0.211560   0.448568
 Mulliken atomic charges:
              1
     1  C    0.428282
     2  C   -0.246094
     3  O   -0.681223
     4  H    0.222637
     5  H    0.141308
     6  H    0.142965
     7  C   -0.707213
     8  H    0.184605
     9  H    0.168734
    10  H    0.192644
    11  O   -1.178285
    12  H    0.331640
 Sum of Mulliken atomic charges =  -1.00000
 Mulliken charges with hydrogens summed into heavy atoms:
              1
     1  C    0.650920
     2  C    0.038179
     3  O   -0.681223
     7  C   -0.161230
    11  O   -0.846645
 Sum of Mulliken charges with hydrogens summed into heavy atoms =  -1.00000
 APT atomic charges:
              1
     1  C    0.143457
     2  C   -0.648936
     3  O   -0.726481
     4  H    0.441742
     5  H    0.360425
     6  H    0.416270
     7  C   -1.334389
     8  H    0.392296
     9  H    0.447402
    10  H    0.379698
    11  O   -1.430648
    12  H    0.559163
 Sum of APT charges=  -1.00000
 APT Atomic charges with hydrogens summed into heavy atoms:
              1
     1  C    0.585199
     2  C    0.127760
     3  O   -0.726481
     4  H    0.000000
     5  H    0.000000
     6  H    0.000000
     7  C   -0.114993
     8  H    0.000000
     9  H    0.000000
    10  H    0.000000
    11  O   -0.871485
    12  H    0.000000
 Sum of APT charges=  -1.00000
 Electronic spatial extent (au):  <R**2>=            524.9478
 Charge=             -1.0000 electrons
 Dipole moment (field-independent basis, Debye):
    X=             -3.2580    Y=              0.2154    Z=              0.9612  Tot=              3.4037
 Quadrupole moment (field-independent basis, Debye-Ang):
   XX=            -66.8375   YY=            -30.3660   ZZ=            -34.5220
   XY=              1.7112   XZ=             -2.6994   YZ=             -0.2614
 Traceless Quadrupole moment (field-independent basis, Debye-Ang):
   XX=            -22.9290   YY=             13.5425   ZZ=              9.3865
   XY=              1.7112   XZ=             -2.6994   YZ=             -0.2614
 Octapole moment (field-independent basis, Debye-Ang**2):
  XXX=            -30.0261  YYY=             -6.3814  ZZZ=             -0.0891  XYY=              2.3091
  XXY=              2.1944  XXZ=              5.5974  XZZ=             -3.8590  YZZ=              0.5780
  YYZ=             -0.8089  XYZ=              1.2223
 Hexadecapole moment (field-independent basis, Debye-Ang**3):
 XXXX=           -611.4310 YYYY=           -199.6121 ZZZZ=            -76.1450 XXXY=              6.8818
 XXXZ=             -6.2837 YYYX=             -9.5454 YYYZ=             -0.9646 ZZZX=             -3.2537
 ZZZY=              0.4109 XXYY=            -96.4113 XXZZ=            -95.3322 YYZZ=            -48.2626
 XXYZ=             -1.5995 YYXZ=             -0.2499 ZZXY=              0.5654
 N-N= 1.765509528626D+02 E-N=-9.913695405891D+02  KE= 2.664860556062D+02
  Exact polarizability:   0.000   0.000   0.000   0.000   0.000   0.000
 Approx polarizability: 106.905  -2.560  67.654   1.786  -2.457  64.075
 D2PCM: PCM CHGder 2nd derivatives, FixD1E=F FixD2E=F DoIter=F DoCFld=F I1PDM=0
 Calling FoFJK, ICntrl=    100147 FMM=F ISym2X=0 I1Cent= 0 IOpClX= 0 NMat=1 NMatS=1 NMatT=0.
 ***** Axes restored to original set *****
 -------------------------------------------------------------------
 Center     Atomic                   Forces (Hartrees/Bohr)
 Number     Number              X              Y              Z
 -------------------------------------------------------------------
      1        6           0.011047761   -0.002964052   -0.000556185
      2        6          -0.019053364    0.000381472    0.007666450
      3        8           0.007859797    0.000769645   -0.004319789
      4        1           0.001824529    0.001213091    0.000303011
      5        1           0.002802480    0.001764116   -0.001087853
      6        1           0.002939188   -0.001967238   -0.001130036
      7        6           0.002629136   -0.000367102    0.002366435
      8        1           0.004167621   -0.002564333   -0.001360034
      9        1          -0.002644752    0.000332675   -0.000897516
     10        1          -0.001093296    0.000069011   -0.001019879
     11        8          -0.010636447    0.002626428   -0.000051449
     12        1           0.000157346    0.000706286    0.000086845
 -------------------------------------------------------------------
 Cartesian Forces:  Max     0.019053364 RMS     0.004813506

 GradGradGradGradGradGradGradGradGradGradGradGradGradGradGradGradGradGrad
 Berny optimization.
 Internal  Forces:  Max     0.007776012 RMS     0.001558445
 Search for a saddle point.
 Step number   1 out of a maximum of   82
 All quantities printed in internal units (Hartrees-Bohrs-Radians)
 Swaping is turned off.
 Second derivative matrix not updated -- analytic derivatives used.
 ITU=  0
     Eigenvalues ---   -0.02096   0.00079   0.00168   0.00326   0.00556
     Eigenvalues ---    0.00884   0.01299   0.01711   0.02232   0.02770
     Eigenvalues ---    0.03293   0.04097   0.05038   0.05388   0.06089
     Eigenvalues ---    0.08781   0.11165   0.12803   0.13974   0.14156
     Eigenvalues ---    0.24880   0.30921   0.31367   0.31492   0.33238
     Eigenvalues ---    0.33953   0.34319   0.35122   0.41067   0.42194
 Eigenvectors required to have negative eigenvalues:
                          R2        R5        R6        D2        D3
   1                    0.55254  -0.43051  -0.31933   0.22312  -0.21094
                          R14       D16       R10       D11       D15
   1                   -0.16942  -0.16157  -0.15302   0.14763  -0.14482
 RFO step:  Lambda0=1.395696055D-03 Lambda=-2.55208462D-03.
 Linear search not attempted -- option 19 set.
 Maximum step size (   0.300) exceeded in Quadratic search.
    -- Step size scaled by   0.632
 Iteration  1 RMS(Cart)=  0.03675987 RMS(Int)=  0.00166916
 Iteration  2 RMS(Cart)=  0.00104379 RMS(Int)=  0.00057740
 Iteration  3 RMS(Cart)=  0.00000379 RMS(Int)=  0.00057736
 Iteration  4 RMS(Cart)=  0.00000001 RMS(Int)=  0.00057736
 Variable       Old X    -DE/DX   Delta X   Delta X   Delta X     New X
                                 (Linear)    (Quad)   (Total)
    R1        2.74172   0.00351   0.00000   0.00478   0.00478   2.74651
    R2        3.37198  -0.00130   0.00000   0.09038   0.09027   3.46225
    R3        2.03637   0.00050   0.00000   0.00268   0.00256   2.03893
    R4        2.83227  -0.00040   0.00000  -0.00260  -0.00216   2.83011
    R5        4.27118   0.00237   0.00000  -0.03831  -0.03908   4.23210
    R6        5.19040   0.00128   0.00000  -0.11876  -0.11798   5.07242
    R7        2.65674   0.00778   0.00000   0.01419   0.01433   2.67107
    R8        2.08380  -0.00295   0.00000  -0.00545  -0.00545   2.07835
    R9        2.08296  -0.00314   0.00000  -0.00596  -0.00596   2.07700
   R10        4.43158   0.00254   0.00000   0.06392   0.06429   4.49587
   R11        2.06608  -0.00105   0.00000  -0.00057   0.00033   2.06641
   R12        2.07433  -0.00173   0.00000  -0.00345  -0.00345   2.07088
   R13        2.07050  -0.00068   0.00000  -0.00214  -0.00214   2.06837
   R14        5.12428   0.00193   0.00000   0.06855   0.06750   5.19178
   R15        4.19681   0.00361   0.00000   0.16861   0.16885   4.36566
   R16        1.83145  -0.00038   0.00000  -0.00051  -0.00095   1.83051
    A1        2.05187  -0.00005   0.00000  -0.00986  -0.01065   2.04122
    A2        2.13860   0.00027   0.00000   0.00014   0.00015   2.13876
    A3        1.88820  -0.00169   0.00000  -0.03664  -0.03734   1.85086
    A4        1.61958  -0.00152   0.00000  -0.04839  -0.04801   1.57157
    A5        1.79882  -0.00058   0.00000  -0.02687  -0.02678   1.77204
    A6        1.85957  -0.00074   0.00000  -0.00988  -0.00988   1.84969
    A7        2.75098   0.00120   0.00000  -0.05114  -0.05189   2.69909
    A8        2.43072   0.00122   0.00000  -0.06263  -0.06243   2.36829
    A9        2.07653   0.00007   0.00000  -0.00126  -0.00236   2.07417
   A10        1.34823   0.00006   0.00000   0.04683   0.04620   1.39443
   A11        1.89367   0.00000   0.00000   0.05840   0.05831   1.95198
   A12        2.03430   0.00068   0.00000  -0.00413  -0.00416   2.03013
   A13        2.04522   0.00078   0.00000  -0.00550  -0.00552   2.03970
   A14        2.02568   0.00054   0.00000  -0.01217  -0.01266   2.01302
   A15        2.02813   0.00085   0.00000  -0.01312  -0.01284   2.01529
   A16        1.92520   0.00019   0.00000   0.00342   0.00338   1.92859
   A17        1.88296   0.00097   0.00000   0.01201   0.01171   1.89467
   A18        1.93754   0.00020   0.00000   0.00425   0.00454   1.94208
   A19        1.92870   0.00007   0.00000   0.00717   0.00712   1.93582
   A20        1.92032  -0.00123   0.00000  -0.02448  -0.02457   1.89576
   A21        1.90994  -0.00045   0.00000  -0.00875  -0.00864   1.90130
   A22        1.88450   0.00040   0.00000   0.00917   0.00896   1.89346
   A23        2.36237  -0.00013   0.00000   0.01966   0.01941   2.38178
   A24        2.03419  -0.00034   0.00000  -0.02716  -0.02702   2.00717
   A25        0.97994  -0.00068   0.00000  -0.01184  -0.01253   0.96741
   A26        0.90257  -0.00041   0.00000  -0.01405  -0.01396   0.88860
   A27        1.21664  -0.00074   0.00000  -0.02473  -0.02463   1.19201
   A28        1.78357  -0.00050   0.00000  -0.04846  -0.04836   1.73521
   A29        2.46869  -0.00074   0.00000  -0.06276  -0.06095   2.40774
   A30        2.84732  -0.00079   0.00000  -0.04414  -0.04730   2.80002
    D1        2.84299   0.00018   0.00000   0.03618   0.03608   2.87907
    D2        0.50680  -0.00186   0.00000   0.04205   0.04198   0.54879
    D3       -0.49309   0.00191   0.00000  -0.02927  -0.02931  -0.52240
    D4       -2.82927  -0.00014   0.00000  -0.02340  -0.02341  -2.85268
    D5        1.28848   0.00091   0.00000  -0.00056  -0.00099   1.28750
    D6       -1.04770  -0.00114   0.00000   0.00530   0.00491  -1.04279
    D7        1.49791   0.00091   0.00000   0.00794   0.00809   1.50600
    D8       -0.83828  -0.00114   0.00000   0.01381   0.01399  -0.82428
    D9        2.13579  -0.00144   0.00000   0.02879   0.02908   2.16487
   D10       -2.04207  -0.00221   0.00000   0.00893   0.00905  -2.03302
   D11        0.04840  -0.00153   0.00000   0.02789   0.02813   0.07653
   D12        3.06046   0.00157   0.00000   0.00443   0.00451   3.06497
   D13       -1.11740   0.00080   0.00000  -0.01544  -0.01552  -1.13292
   D14        0.97307   0.00148   0.00000   0.00353   0.00356   0.97663
   D15       -1.20291   0.00030   0.00000  -0.03846  -0.03837  -1.24129
   D16        0.90242  -0.00048   0.00000  -0.05832  -0.05840   0.84401
   D17        2.99288   0.00021   0.00000  -0.03936  -0.03932   2.95356
   D18        0.28701   0.00039   0.00000   0.04727   0.04742   0.33443
   D19        2.39234  -0.00038   0.00000   0.02741   0.02739   2.41973
   D20       -1.80038   0.00030   0.00000   0.04637   0.04647  -1.75391
   D21       -2.27691  -0.00009   0.00000  -0.02956  -0.02838  -2.30529
   D22       -2.51928  -0.00086   0.00000  -0.00113  -0.00152  -2.52079
   D23       -0.98399  -0.00070   0.00000   0.05096   0.05095  -0.93305
   D24       -1.96187   0.00001   0.00000   0.08366   0.08393  -1.87795
   D25        2.23772   0.00040   0.00000   0.01953   0.01935   2.25707
   D26        1.25984   0.00111   0.00000   0.05223   0.05233   1.31217
         Item               Value     Threshold  Converged?
 Maximum Force            0.007776     0.000450     NO 
 RMS     Force            0.001558     0.000300     NO 
 Maximum Displacement     0.170376     0.001800     NO 
 RMS     Displacement     0.036495     0.001200     NO 
 Predicted change in Energy=-6.055320D-04
 GradGradGradGradGradGradGradGradGradGradGradGradGradGradGradGradGradGrad

                          Input orientation:                          
 ---------------------------------------------------------------------
 Center     Atomic      Atomic             Coordinates (Angstroms)
 Number     Number       Type             X           Y           Z
 ---------------------------------------------------------------------
      1          6           0       -0.020344   -0.004327   -0.022839
      2          6           0       -0.026071    0.010010    1.430469
      3          8           0        1.364429    0.003049    1.176784
      4          1           0        0.120564    0.942468   -0.520705
      5          1           0       -0.418719   -0.890228    1.925439
      6          1           0       -0.413242    0.916476    1.916724
      7          6           0        0.127523   -1.266393   -0.815446
      8          1           0       -0.725333   -1.352906   -1.494332
      9          1           0        1.048222   -1.257119   -1.409707
     10          1           0        0.147909   -2.140854   -0.157492
     11          8           0       -2.153574    0.256179   -0.652884
     12          1           0       -2.548404    0.897597   -0.043787
 ---------------------------------------------------------------------
                    Distance matrix (angstroms):
                    1          2          3          4          5
     1  C    0.000000
     2  C    1.453390   0.000000
     3  O    1.832143   1.413469   0.000000
     4  H    1.078956   2.167500   2.304599   0.000000
     5  H    2.176995   1.099817   2.130268   3.103743   0.000000
     6  H    2.182694   1.099102   2.131191   2.495333   1.806733
     7  C    1.497632   2.587842   2.666533   2.228450   2.819987
     8  H    2.116829   3.301661   3.652476   2.632914   3.464523
     9  H    2.152841   3.290337   2.894468   2.547362   3.661929
    10  H    2.147368   2.679199   2.802951   3.104762   2.494742
    11  O    2.239529   2.987846   3.973425   2.379111   3.312359
    12  H    2.684212   3.053425   4.195268   2.711615   3.407305
                    6          7          8          9         10
     6  H    0.000000
     7  C    3.538658   0.000000
     8  H    4.108869   1.093497   0.000000
     9  H    4.233856   1.095864   1.778155   0.000000
    10  H    3.736915   1.094532   1.780605   1.777525   0.000000
    11  O    3.172954   2.747373   2.310208   3.621374   3.359763
    12  H    2.898772   3.526882   3.239202   4.409564   4.063892
                   11         12
    11  O    0.000000
    12  H    0.968662   0.000000
 Stoichiometry    C3H7O2(1-)
 Framework group  C1[X(C3H7O2)]
 Deg. of freedom    30
 Full point group                 C1      NOp   1
 Largest Abelian subgroup         C1      NOp   1
 Largest concise Abelian subgroup C1      NOp   1
                         Standard orientation:                         
 ---------------------------------------------------------------------
 Center     Atomic      Atomic             Coordinates (Angstroms)
 Number     Number       Type             X           Y           Z
 ---------------------------------------------------------------------
      1          6           0       -0.028046    0.093917   -0.336864
      2          6           0       -0.828038   -0.877932    0.389677
      3          8           0       -1.843345   -0.142853   -0.263550
      4          1           0        0.175374   -0.118261   -1.375010
      5          1           0       -0.818453   -0.795190    1.486335
      6          1           0       -0.733062   -1.928843    0.082118
      7          6           0        0.228879    1.475094    0.182021
      8          1           0        1.309809    1.633099    0.230616
      9          1           0       -0.206487    2.234771   -0.476968
     10          1           0       -0.193898    1.601075    1.183714
     11          8           0        2.106215   -0.518065   -0.043777
     12          1           0        2.126991   -1.485781   -0.081202
 ---------------------------------------------------------------------
 Rotational constants (GHZ):      7.4837627      3.3182860      2.5425608
 Standard basis: 6-31++G(d,p) (6D, 7F)
 There are   137 symmetry adapted basis functions of A   symmetry.
 Integral buffers will be    131072 words long.
 Raffenetti 2 integral format.
 Two-electron integral symmetry is turned on.
   137 basis functions,   216 primitive gaussians,   137 cartesian basis functions
    21 alpha electrons       21 beta electrons
       nuclear repulsion energy       176.0690098961 Hartrees.
 NAtoms=   12 NActive=   12 NUniq=   12 SFac= 1.00D+00 NAtFMM=   50 NAOKFM=F Big=F
 ------------------------------------------------------------------------------
 Polarizable Continuum Model (PCM)
 =================================
 Model                : PCM.
 Atomic radii         : SMD-Coulomb.
 Polarization charges : Total charges.
 Charge compensation  : None.
 Solution method      : Matrix inversion.
 Cavity type          : VdW (van der Waals Surface) (Alpha=1.000).
 Cavity algorithm     : GePol (No added spheres)
                        Default sphere list used, NSphG=   12.
                        Lebedev-Laikov grids with approx.  5.0 points / Ang**2.
                        Smoothing algorithm: Karplus/York (Gamma=1.0000).
                        Polarization charges: spherical gaussians, with
                                              point-specific exponents (IZeta= 3).
                        Self-potential: point-specific (ISelfS= 7).
                        Self-field    : sphere-specific E.n sum rule (ISelfD= 2).
 1st derivatives      : Analytical E(r).r(x)/FMM algorithm (CHGder, D1EAlg=3).
                        Cavity 1st derivative terms included.
 Solvent              : Water, Eps=  78.355300 Eps(inf)=   1.777849
 ------------------------------------------------------------------------------
 Spheres list:
 ISph  on   Nord    Re0     Alpha      Xe            Ye            Ze
    1   C      1    1.850   1.000     -0.028046      0.093917     -0.336864
    2   C      2    1.850   1.000     -0.828038     -0.877932      0.389677
    3   O      3    1.520   1.000     -1.843345     -0.142853     -0.263550
    4   H      4    1.200   1.000      0.175374     -0.118261     -1.375010
    5   H      5    1.200   1.000     -0.818453     -0.795190      1.486335
    6   H      6    1.200   1.000     -0.733062     -1.928843      0.082118
    7   C      7    1.850   1.000      0.228879      1.475094      0.182021
    8   H      8    1.200   1.000      1.309809      1.633099      0.230616
    9   H      9    1.200   1.000     -0.206487      2.234771     -0.476968
   10   H     10    1.200   1.000     -0.193898      1.601075      1.183714
   11   O     11    1.520   1.000      2.106215     -0.518065     -0.043777
   12   H     12    1.200   1.000      2.126991     -1.485781     -0.081202
 ------------------------------------------------------------------------------
 ------------------------------------------------------------------------------
 Atomic radii for non-electrostatic terms: SMD-CDS.
 ------------------------------------------------------------------------------
 Nuclear repulsion after PCM non-electrostatic terms =      176.0732481500 Hartrees.
 One-electron integrals computed using PRISM.
 NBasis=   137 RedAO= T  NBF=   137
 NBsUse=   137 1.00D-06 NBFU=   137
 Initial guess read from the read-write file.
 B after Tr=     0.000000    0.000000    0.000000
         Rot=    1.000000    0.000000    0.000000    0.000000 Ang=   0.00 deg.
 Initial guess orbital symmetries:
       Occupied  (A) (A) (A) (A) (A) (A) (A) (A) (A) (A) (A) (A)
                 (A) (A) (A) (A) (A) (A) (A) (A) (A)
       Virtual   (A) (A) (A) (A) (A) (A) (A) (A) (A) (A) (A) (A)
                 (A) (A) (A) (A) (A) (A) (A) (A) (A) (A) (A) (A)
                 (A) (A) (A) (A) (A) (A) (A) (A) (A) (A) (A) (A)
                 (A) (A) (A) (A) (A) (A) (A) (A) (A) (A) (A) (A)
                 (A) (A) (A) (A) (A) (A) (A) (A) (A) (A) (A) (A)
                 (A) (A) (A) (A) (A) (A) (A) (A) (A) (A) (A) (A)
                 (A) (A) (A) (A) (A) (A) (A) (A) (A) (A) (A) (A)
                 (A) (A) (A) (A) (A) (A) (A) (A) (A) (A) (A) (A)
                 (A) (A) (A) (A) (A) (A) (A) (A) (A) (A) (A) (A)
                 (A) (A) (A) (A) (A) (A) (A) (A)
 Harris functional with IExCor=  402 diagonalized for initial guess.
 ExpMin= 3.60D-02 ExpMax= 5.48D+03 ExpMxC= 8.25D+02 IAcc=3 IRadAn=         0 AccDes= 0.00D+00
 HarFok:  IExCor=  402 AccDes= 0.00D+00 IRadAn=         0 IDoV= 1
 ScaDFX=  1.000000  1.000000  1.000000  1.000000
 FoFCou: FMM=F IPFlag=           0 FMFlag=      100000 FMFlg1=           0
         NFxFlg=           0 DoJE=T BraDBF=F KetDBF=T FulRan=T
         Omega=  0.000000  0.000000  1.000000  0.000000  0.000000 ICntrl=     500 IOpCl=  0
         NMat0=    1 NMatS0=    1 NMatT0=    0 NMatD0=    1 NMtDS0=    0 NMtDT0=    0
         I1Cent=           4 NGrid=           0.
 Petite list used in FoFCou.
 Requested convergence on RMS density matrix=1.00D-08 within 128 cycles.
 Requested convergence on MAX density matrix=1.00D-06.
 Requested convergence on             energy=1.00D-06.
 No special actions if energy rises.
 Keep R1 ints in memory in canonical form, NReq=48848764.
 Error on total polarization charges =  0.07529
 SCF Done:  E(RB3LYP) =  -269.056868023     A.U. after   11 cycles
             Convg  =    0.7317D-08             -V/T =  2.0098
 SMD-CDS (non-electrostatic) energy       (kcal/mol) =       2.66
 (included in total energy above)
 D1PCM: PCM CHGder 1st derivatives, ID1Alg=3 FixD1E=F DoIter=F DoCFld=F I1PDM=0.
 Calling FoFJK, ICntrl=      2127 FMM=F ISym2X=0 I1Cent= 0 IOpClX= 0 NMat=1 NMatS=1 NMatT=0.
 ***** Axes restored to original set *****
 -------------------------------------------------------------------
 Center     Atomic                   Forces (Hartrees/Bohr)
 Number     Number              X              Y              Z
 -------------------------------------------------------------------
      1        6           0.004255393   -0.001383679   -0.000703724
      2        6          -0.007440473    0.000049180    0.002904710
      3        8           0.002906895    0.000373984   -0.001285295
      4        1           0.000950139    0.000682251   -0.000035672
      5        1           0.001150160    0.000590044   -0.000437281
      6        1           0.001212343   -0.000714941   -0.000433004
      7        6           0.000844671   -0.000368061    0.000859495
      8        1           0.002339399   -0.001283337   -0.000648043
      9        1          -0.000885276    0.000307409   -0.000234319
     10        1          -0.000527580   -0.000044804   -0.000449949
     11        8          -0.005226384    0.001187818    0.000095354
     12        1           0.000420713    0.000604137    0.000367727
 -------------------------------------------------------------------
 Cartesian Forces:  Max     0.007440473 RMS     0.001971436

 GradGradGradGradGradGradGradGradGradGradGradGradGradGradGradGradGradGrad
 Berny optimization.
 Internal  Forces:  Max     0.002837223 RMS     0.000634503
 Search for a saddle point.
 Step number   2 out of a maximum of   82
 All quantities printed in internal units (Hartrees-Bohrs-Radians)
 Swaping is turned off.
 Update second derivatives using D2CorX and points    1    2
 ITU=  0  0
     Eigenvalues ---   -0.02123   0.00079   0.00177   0.00306   0.00571
     Eigenvalues ---    0.00857   0.01296   0.01710   0.02231   0.02769
     Eigenvalues ---    0.03296   0.04089   0.05033   0.05384   0.06081
     Eigenvalues ---    0.08767   0.11127   0.12777   0.13965   0.14143
     Eigenvalues ---    0.24862   0.30892   0.31365   0.31492   0.33238
     Eigenvalues ---    0.33949   0.34286   0.35105   0.41044   0.42176
 Eigenvectors required to have negative eigenvalues:
                          R2        R5        R6        D2        D3
   1                    0.55410  -0.42888  -0.31719   0.22178  -0.21151
                          R14       D16       R10       D11       D15
   1                   -0.16755  -0.16153  -0.15472   0.14869  -0.14473
 RFO step:  Lambda0=2.060508706D-04 Lambda=-1.04316134D-03.
 Linear search not attempted -- option 19 set.
 Maximum step size (   0.300) exceeded in Quadratic search.
    -- Step size scaled by   0.773
 Iteration  1 RMS(Cart)=  0.03473973 RMS(Int)=  0.00179578
 Iteration  2 RMS(Cart)=  0.00122743 RMS(Int)=  0.00047016
 Iteration  3 RMS(Cart)=  0.00000387 RMS(Int)=  0.00047011
 Iteration  4 RMS(Cart)=  0.00000001 RMS(Int)=  0.00047011
 Variable       Old X    -DE/DX   Delta X   Delta X   Delta X     New X
                                 (Linear)    (Quad)   (Total)
    R1        2.74651   0.00144   0.00000   0.00276   0.00276   2.74927
    R2        3.46225  -0.00037   0.00000   0.03982   0.03980   3.50205
    R3        2.03893   0.00037   0.00000   0.00187   0.00154   2.04047
    R4        2.83011  -0.00022   0.00000  -0.00111  -0.00114   2.82897
    R5        4.23210   0.00099   0.00000  -0.00197  -0.00223   4.22986
    R6        5.07242   0.00045   0.00000  -0.12219  -0.12224   4.95019
    R7        2.67107   0.00284   0.00000   0.00684   0.00687   2.67794
    R8        2.07835  -0.00112   0.00000  -0.00281  -0.00281   2.07554
    R9        2.07700  -0.00120   0.00000  -0.00296  -0.00296   2.07404
   R10        4.49587   0.00114   0.00000   0.04312   0.04350   4.53936
   R11        2.06641  -0.00067   0.00000   0.00025   0.00093   2.06734
   R12        2.07088  -0.00063   0.00000  -0.00140  -0.00140   2.06948
   R13        2.06837  -0.00023   0.00000  -0.00098  -0.00098   2.06739
   R14        5.19178   0.00094   0.00000   0.08362   0.08311   5.27489
   R15        4.36566   0.00195   0.00000   0.16809   0.16837   4.53403
   R16        1.83051   0.00010   0.00000  -0.00028  -0.00005   1.83045
    A1        2.04122   0.00005   0.00000  -0.00497  -0.00548   2.03574
    A2        2.13876   0.00006   0.00000   0.00115   0.00162   2.14038
    A3        1.85086  -0.00070   0.00000  -0.03502  -0.03569   1.81517
    A4        1.57157  -0.00068   0.00000  -0.04931  -0.04869   1.52288
    A5        1.77204  -0.00025   0.00000  -0.01314  -0.01350   1.75854
    A6        1.84969  -0.00022   0.00000  -0.00306  -0.00257   1.84712
    A7        2.69909   0.00031   0.00000  -0.04321  -0.04389   2.65520
    A8        2.36829   0.00025   0.00000  -0.05971  -0.05928   2.30901
    A9        2.07417   0.00003   0.00000  -0.00285  -0.00318   2.07099
   A10        1.39443   0.00002   0.00000   0.02019   0.01956   1.41399
   A11        1.95198   0.00014   0.00000   0.05445   0.05405   2.00603
   A12        2.03013   0.00027   0.00000  -0.00176  -0.00176   2.02837
   A13        2.03970   0.00028   0.00000  -0.00254  -0.00254   2.03716
   A14        2.01302   0.00027   0.00000  -0.00628  -0.00616   2.00686
   A15        2.01529   0.00019   0.00000  -0.00770  -0.00785   2.00744
   A16        1.92859   0.00013   0.00000   0.00349   0.00349   1.93208
   A17        1.89467   0.00048   0.00000   0.01058   0.01005   1.90471
   A18        1.94208   0.00001   0.00000  -0.00069   0.00006   1.94215
   A19        1.93582   0.00005   0.00000   0.00455   0.00441   1.94023
   A20        1.89576  -0.00054   0.00000  -0.01465  -0.01483   1.88092
   A21        1.90130  -0.00021   0.00000  -0.00489  -0.00464   1.89666
   A22        1.89346   0.00019   0.00000   0.00448   0.00425   1.89771
   A23        2.38178  -0.00005   0.00000   0.02576   0.02545   2.40723
   A24        2.00717  -0.00015   0.00000  -0.02908  -0.02897   1.97820
   A25        0.96741  -0.00037   0.00000  -0.01783  -0.01828   0.94913
   A26        0.88860  -0.00017   0.00000  -0.01447  -0.01442   0.87418
   A27        1.19201  -0.00037   0.00000  -0.02820  -0.02814   1.16387
   A28        1.73521  -0.00036   0.00000  -0.07076  -0.07060   1.66461
   A29        2.40774  -0.00050   0.00000  -0.09024  -0.08850   2.31924
   A30        2.80002  -0.00061   0.00000  -0.08273  -0.08494   2.71508
    D1        2.87907   0.00013   0.00000   0.01853   0.01850   2.89757
    D2        0.54879  -0.00073   0.00000   0.01790   0.01787   0.56666
    D3       -0.52240   0.00075   0.00000  -0.01124  -0.01121  -0.53361
    D4       -2.85268  -0.00011   0.00000  -0.01188  -0.01183  -2.86451
    D5        1.28750   0.00040   0.00000   0.01114   0.01101   1.29851
    D6       -1.04279  -0.00046   0.00000   0.01050   0.01039  -1.03240
    D7        1.50600   0.00046   0.00000   0.02086   0.02108   1.52708
    D8       -0.82428  -0.00040   0.00000   0.02022   0.02045  -0.80383
    D9        2.16487  -0.00049   0.00000   0.03085   0.03097   2.19584
   D10       -2.03302  -0.00084   0.00000   0.01912   0.01911  -2.01391
   D11        0.07653  -0.00056   0.00000   0.02743   0.02759   0.10412
   D12        3.06497   0.00061   0.00000   0.02066   0.02096   3.08593
   D13       -1.13292   0.00026   0.00000   0.00893   0.00910  -1.12382
   D14        0.97663   0.00054   0.00000   0.01725   0.01758   0.99421
   D15       -1.24129   0.00015   0.00000   0.00025   0.00039  -1.24090
   D16        0.84401  -0.00021   0.00000  -0.01148  -0.01148   0.83254
   D17        2.95356   0.00007   0.00000  -0.00317  -0.00299   2.95057
   D18        0.33443   0.00027   0.00000   0.05363   0.05336   0.38779
   D19        2.41973  -0.00009   0.00000   0.04190   0.04150   2.46123
   D20       -1.75391   0.00019   0.00000   0.05022   0.04998  -1.70393
   D21       -2.30529   0.00001   0.00000  -0.02808  -0.02749  -2.33279
   D22       -2.52079  -0.00037   0.00000  -0.02759  -0.02688  -2.54768
   D23       -0.93305  -0.00010   0.00000   0.05683   0.05753  -0.87551
   D24       -1.87795   0.00018   0.00000   0.08802   0.08795  -1.79000
   D25        2.25707   0.00022   0.00000   0.02098   0.02141   2.27848
   D26        1.31217   0.00050   0.00000   0.05217   0.05182   1.36399
         Item               Value     Threshold  Converged?
 Maximum Force            0.002837     0.000450     NO 
 RMS     Force            0.000635     0.000300     NO 
 Maximum Displacement     0.160665     0.001800     NO 
 RMS     Displacement     0.034383     0.001200     NO 
 Predicted change in Energy=-4.550543D-04
 GradGradGradGradGradGradGradGradGradGradGradGradGradGradGradGradGradGrad

                          Input orientation:                          
 ---------------------------------------------------------------------
 Center     Atomic      Atomic             Coordinates (Angstroms)
 Number     Number       Type             X           Y           Z
 ---------------------------------------------------------------------
      1          6           0       -0.034123   -0.010252   -0.041165
      2          6           0       -0.049401    0.017134    1.413346
      3          8           0        1.350110    0.015614    1.190741
      4          1           0        0.123731    0.933476   -0.541529
      5          1           0       -0.440889   -0.880056    1.911454
      6          1           0       -0.443263    0.926163    1.885702
      7          6           0        0.138555   -1.275143   -0.823038
      8          1           0       -0.688187   -1.373703   -1.532684
      9          1           0        1.071547   -1.263712   -1.396352
     10          1           0        0.141296   -2.149085   -0.164949
     11          8           0       -2.181640    0.262119   -0.610535
     12          1           0       -2.484775    0.911397    0.041233
 ---------------------------------------------------------------------
                    Distance matrix (angstroms):
                    1          2          3          4          5
     1  C    0.000000
     2  C    1.454849   0.000000
     3  O    1.853204   1.417106   0.000000
     4  H    1.079771   2.165916   2.312410   0.000000
     5  H    2.175945   1.098328   2.128222   3.102389   0.000000
     6  H    2.181074   1.097534   2.127971   2.492586   1.806404
     7  C    1.497027   2.589734   2.681273   2.226537   2.822994
     8  H    2.124012   3.319874   3.674494   2.639067   3.488113
     9  H    2.151789   3.285041   2.899538   2.541006   3.657353
    10  H    2.149581   2.686984   2.825783   3.105528   2.502164
    11  O    2.238348   2.950009   3.972232   2.402128   3.270353
    12  H    2.619527   2.934866   4.102455   2.672901   3.299166
                    6          7          8          9         10
     6  H    0.000000
     7  C    3.538577   0.000000
     8  H    4.127315   1.093990   0.000000
     9  H    4.226355   1.095123   1.768431   0.000000
    10  H    3.742195   1.094013   1.777627   1.779215   0.000000
    11  O    3.113536   2.791350   2.399308   3.678165   3.377645
    12  H    2.751373   3.522751   3.305544   4.409668   4.037983
                   11         12
    11  O    0.000000
    12  H    0.968635   0.000000
 Stoichiometry    C3H7O2(1-)
 Framework group  C1[X(C3H7O2)]
 Deg. of freedom    30
 Full point group                 C1      NOp   1
 Largest Abelian subgroup         C1      NOp   1
 Largest concise Abelian subgroup C1      NOp   1
                         Standard orientation:                         
 ---------------------------------------------------------------------
 Center     Atomic      Atomic             Coordinates (Angstroms)
 Number     Number       Type             X           Y           Z
 ---------------------------------------------------------------------
      1          6           0       -0.017575    0.113191   -0.340386
      2          6           0       -0.788013   -0.885668    0.384384
      3          8           0       -1.844215   -0.186397   -0.250949
      4          1           0        0.167929   -0.083287   -1.385800
      5          1           0       -0.773565   -0.808620    1.479911
      6          1           0       -0.665359   -1.929191    0.067216
      7          6           0        0.194454    1.501554    0.177863
      8          1           0        1.267087    1.715280    0.202181
      9          1           0       -0.279801    2.244908   -0.471600
     10          1           0       -0.207544    1.611307    1.189405
     11          8           0        2.108382   -0.518768   -0.038501
     12          1           0        2.044720   -1.483544   -0.096873
 ---------------------------------------------------------------------
 Rotational constants (GHZ):      7.3083593      3.3508682      2.5372227
 Standard basis: 6-31++G(d,p) (6D, 7F)
 There are   137 symmetry adapted basis functions of A   symmetry.
 Integral buffers will be    131072 words long.
 Raffenetti 2 integral format.
 Two-electron integral symmetry is turned on.
   137 basis functions,   216 primitive gaussians,   137 cartesian basis functions
    21 alpha electrons       21 beta electrons
       nuclear repulsion energy       175.7889552296 Hartrees.
 NAtoms=   12 NActive=   12 NUniq=   12 SFac= 1.00D+00 NAtFMM=   50 NAOKFM=F Big=F
 ------------------------------------------------------------------------------
 Polarizable Continuum Model (PCM)
 =================================
 Model                : PCM.
 Atomic radii         : SMD-Coulomb.
 Polarization charges : Total charges.
 Charge compensation  : None.
 Solution method      : Matrix inversion.
 Cavity type          : VdW (van der Waals Surface) (Alpha=1.000).
 Cavity algorithm     : GePol (No added spheres)
                        Default sphere list used, NSphG=   12.
                        Lebedev-Laikov grids with approx.  5.0 points / Ang**2.
                        Smoothing algorithm: Karplus/York (Gamma=1.0000).
                        Polarization charges: spherical gaussians, with
                                              point-specific exponents (IZeta= 3).
                        Self-potential: point-specific (ISelfS= 7).
                        Self-field    : sphere-specific E.n sum rule (ISelfD= 2).
 1st derivatives      : Analytical E(r).r(x)/FMM algorithm (CHGder, D1EAlg=3).
                        Cavity 1st derivative terms included.
 Solvent              : Water, Eps=  78.355300 Eps(inf)=   1.777849
 ------------------------------------------------------------------------------
 Spheres list:
 ISph  on   Nord    Re0     Alpha      Xe            Ye            Ze
    1   C      1    1.850   1.000     -0.017575      0.113191     -0.340386
    2   C      2    1.850   1.000     -0.788013     -0.885668      0.384384
    3   O      3    1.520   1.000     -1.844215     -0.186397     -0.250949
    4   H      4    1.200   1.000      0.167929     -0.083287     -1.385800
    5   H      5    1.200   1.000     -0.773565     -0.808620      1.479911
    6   H      6    1.200   1.000     -0.665359     -1.929191      0.067216
    7   C      7    1.850   1.000      0.194454      1.501554      0.177863
    8   H      8    1.200   1.000      1.267087      1.715280      0.202181
    9   H      9    1.200   1.000     -0.279801      2.244908     -0.471600
   10   H     10    1.200   1.000     -0.207544      1.611307      1.189405
   11   O     11    1.520   1.000      2.108382     -0.518768     -0.038501
   12   H     12    1.200   1.000      2.044720     -1.483544     -0.096873
 ------------------------------------------------------------------------------
 ------------------------------------------------------------------------------
 Atomic radii for non-electrostatic terms: SMD-CDS.
 ------------------------------------------------------------------------------
 Nuclear repulsion after PCM non-electrostatic terms =      175.7930936712 Hartrees.
 One-electron integrals computed using PRISM.
 NBasis=   137 RedAO= T  NBF=   137
 NBsUse=   137 1.00D-06 NBFU=   137
 Initial guess read from the read-write file.
 B after Tr=     0.000000    0.000000    0.000000
         Rot=    1.000000    0.000000    0.000000    0.000000 Ang=   0.00 deg.
 Initial guess orbital symmetries:
       Occupied  (A) (A) (A) (A) (A) (A) (A) (A) (A) (A) (A) (A)
                 (A) (A) (A) (A) (A) (A) (A) (A) (A)
       Virtual   (A) (A) (A) (A) (A) (A) (A) (A) (A) (A) (A) (A)
                 (A) (A) (A) (A) (A) (A) (A) (A) (A) (A) (A) (A)
                 (A) (A) (A) (A) (A) (A) (A) (A) (A) (A) (A) (A)
                 (A) (A) (A) (A) (A) (A) (A) (A) (A) (A) (A) (A)
                 (A) (A) (A) (A) (A) (A) (A) (A) (A) (A) (A) (A)
                 (A) (A) (A) (A) (A) (A) (A) (A) (A) (A) (A) (A)
                 (A) (A) (A) (A) (A) (A) (A) (A) (A) (A) (A) (A)
                 (A) (A) (A) (A) (A) (A) (A) (A) (A) (A) (A) (A)
                 (A) (A) (A) (A) (A) (A) (A) (A) (A) (A) (A) (A)
                 (A) (A) (A) (A) (A) (A) (A) (A)
 Harris functional with IExCor=  402 diagonalized for initial guess.
 ExpMin= 3.60D-02 ExpMax= 5.48D+03 ExpMxC= 8.25D+02 IAcc=3 IRadAn=         0 AccDes= 0.00D+00
 HarFok:  IExCor=  402 AccDes= 0.00D+00 IRadAn=         0 IDoV= 1
 ScaDFX=  1.000000  1.000000  1.000000  1.000000
 FoFCou: FMM=F IPFlag=           0 FMFlag=      100000 FMFlg1=           0
         NFxFlg=           0 DoJE=T BraDBF=F KetDBF=T FulRan=T
         Omega=  0.000000  0.000000  1.000000  0.000000  0.000000 ICntrl=     500 IOpCl=  0
         NMat0=    1 NMatS0=    1 NMatT0=    0 NMatD0=    1 NMtDS0=    0 NMtDT0=    0
         I1Cent=           4 NGrid=           0.
 Petite list used in FoFCou.
 Requested convergence on RMS density matrix=1.00D-08 within 128 cycles.
 Requested convergence on MAX density matrix=1.00D-06.
 Requested convergence on             energy=1.00D-06.
 No special actions if energy rises.
 Keep R1 ints in memory in canonical form, NReq=48842972.
 Error on total polarization charges =  0.07552
 SCF Done:  E(RB3LYP) =  -269.057314968     A.U. after   11 cycles
             Convg  =    0.5071D-08             -V/T =  2.0098
 SMD-CDS (non-electrostatic) energy       (kcal/mol) =       2.60
 (included in total energy above)
 D1PCM: PCM CHGder 1st derivatives, ID1Alg=3 FixD1E=F DoIter=F DoCFld=F I1PDM=0.
 Calling FoFJK, ICntrl=      2127 FMM=F ISym2X=0 I1Cent= 0 IOpClX= 0 NMat=1 NMatS=1 NMatT=0.
 ***** Axes restored to original set *****
 -------------------------------------------------------------------
 Center     Atomic                   Forces (Hartrees/Bohr)
 Number     Number              X              Y              Z
 -------------------------------------------------------------------
      1        6           0.001495129   -0.000443778   -0.000019102
      2        6          -0.001867843   -0.000132377    0.000820823
      3        8           0.000879383    0.000040251   -0.000529462
      4        1           0.000258930    0.000437775   -0.000213190
      5        1           0.000306001    0.000086121   -0.000106878
      6        1           0.000258764   -0.000216289   -0.000077218
      7        6          -0.000354594   -0.000519920   -0.000052899
      8        1           0.001330222   -0.000337620   -0.000057276
      9        1          -0.000072506    0.000270069    0.000154201
     10        1          -0.000261313   -0.000054145   -0.000117123
     11        8          -0.002172404    0.000712040    0.000134438
     12        1           0.000200231    0.000157873    0.000063686
 -------------------------------------------------------------------
 Cartesian Forces:  Max     0.002172404 RMS     0.000666467

 GradGradGradGradGradGradGradGradGradGradGradGradGradGradGradGradGradGrad
 Berny optimization.
 Internal  Forces:  Max     0.000843964 RMS     0.000235964
 Search for a saddle point.
 Step number   3 out of a maximum of   82
 All quantities printed in internal units (Hartrees-Bohrs-Radians)
 Swaping is turned off.
 Update second derivatives using D2CorX and points    2    3
 ITU=  0  0  0
     Eigenvalues ---   -0.02080   0.00050   0.00184   0.00322   0.00585
     Eigenvalues ---    0.00814   0.01295   0.01712   0.02232   0.02766
     Eigenvalues ---    0.03296   0.04075   0.05029   0.05375   0.06066
     Eigenvalues ---    0.08747   0.11049   0.12732   0.13957   0.14128
     Eigenvalues ---    0.24829   0.30841   0.31361   0.31492   0.33237
     Eigenvalues ---    0.33944   0.34249   0.35090   0.40947   0.42143
 Eigenvectors required to have negative eigenvalues:
                          R2        R5        R6        D2        D3
   1                    0.55439  -0.43106  -0.29820   0.22247  -0.21342
                          R14       D16       R10       D11       D15
   1                   -0.17966  -0.16274  -0.16075   0.14839  -0.14697
 RFO step:  Lambda0=3.534711840D-05 Lambda=-3.26944023D-04.
 Linear search not attempted -- option 19 set.
 Iteration  1 RMS(Cart)=  0.04372604 RMS(Int)=  0.00248017
 Iteration  2 RMS(Cart)=  0.00220827 RMS(Int)=  0.00090475
 Iteration  3 RMS(Cart)=  0.00000574 RMS(Int)=  0.00090472
 Iteration  4 RMS(Cart)=  0.00000001 RMS(Int)=  0.00090472
 Variable       Old X    -DE/DX   Delta X   Delta X   Delta X     New X
                                 (Linear)    (Quad)   (Total)
    R1        2.74927   0.00045   0.00000   0.00267   0.00271   2.75198
    R2        3.50205  -0.00021   0.00000   0.02458   0.02468   3.52673
    R3        2.04047   0.00034   0.00000   0.00188   0.00169   2.04216
    R4        2.82897  -0.00015   0.00000   0.00043   0.00031   2.82928
    R5        4.22986   0.00045   0.00000   0.00648   0.00679   4.23666
    R6        4.95019   0.00023   0.00000  -0.07044  -0.06988   4.88031
    R7        2.67794   0.00084   0.00000   0.00200   0.00182   2.67977
    R8        2.07554  -0.00026   0.00000  -0.00065  -0.00065   2.07489
    R9        2.07404  -0.00028   0.00000  -0.00062  -0.00062   2.07341
   R10        4.53936   0.00043   0.00000   0.01957   0.01916   4.55853
   R11        2.06734  -0.00066   0.00000  -0.00037   0.00075   2.06809
   R12        2.06948  -0.00014   0.00000  -0.00023  -0.00023   2.06926
   R13        2.06739  -0.00001   0.00000  -0.00002  -0.00002   2.06736
   R14        5.27489   0.00040   0.00000   0.05581   0.05388   5.32876
   R15        4.53403   0.00079   0.00000   0.15242   0.15367   4.68771
   R16        1.83045  -0.00007   0.00000  -0.00077  -0.00042   1.83003
    A1        2.03574   0.00011   0.00000  -0.00236  -0.00343   2.03231
    A2        2.14038  -0.00016   0.00000   0.00007   0.00095   2.14133
    A3        1.81517  -0.00012   0.00000  -0.00957  -0.00890   1.80627
    A4        1.52288  -0.00007   0.00000  -0.02427  -0.02375   1.49914
    A5        1.75854  -0.00006   0.00000  -0.00786  -0.00860   1.74994
    A6        1.84712  -0.00016   0.00000  -0.00443  -0.00337   1.84375
    A7        2.65520   0.00019   0.00000  -0.01644  -0.01600   2.63919
    A8        2.30901   0.00020   0.00000  -0.02951  -0.02891   2.28010
    A9        2.07099   0.00010   0.00000  -0.00354  -0.00346   2.06752
   A10        1.41399  -0.00006   0.00000   0.01641   0.01667   1.43065
   A11        2.00603   0.00002   0.00000   0.02800   0.02644   2.03246
   A12        2.02837   0.00007   0.00000  -0.00340  -0.00340   2.02497
   A13        2.03716   0.00007   0.00000  -0.00053  -0.00055   2.03661
   A14        2.00686   0.00014   0.00000  -0.00199  -0.00188   2.00498
   A15        2.00744   0.00007   0.00000  -0.00268  -0.00286   2.00458
   A16        1.93208   0.00004   0.00000   0.00009   0.00008   1.93215
   A17        1.90471   0.00017   0.00000   0.00749   0.00510   1.90981
   A18        1.94215  -0.00015   0.00000  -0.00148   0.00207   1.94422
   A19        1.94023   0.00004   0.00000   0.00023  -0.00046   1.93977
   A20        1.88092  -0.00013   0.00000  -0.00859  -0.00925   1.87167
   A21        1.89666  -0.00003   0.00000   0.00152   0.00245   1.89911
   A22        1.89771   0.00011   0.00000   0.00059  -0.00020   1.89750
   A23        2.40723  -0.00008   0.00000   0.08368   0.08281   2.49003
   A24        1.97820  -0.00003   0.00000  -0.08390  -0.08291   1.89530
   A25        0.94913  -0.00025   0.00000  -0.01822  -0.01926   0.92987
   A26        0.87418  -0.00002   0.00000  -0.00895  -0.00867   0.86551
   A27        1.16387  -0.00018   0.00000  -0.03969  -0.03978   1.12409
   A28        1.66461  -0.00012   0.00000  -0.03029  -0.02938   1.63523
   A29        2.31924  -0.00019   0.00000  -0.06145  -0.06085   2.25839
   A30        2.71508  -0.00035   0.00000  -0.05817  -0.06098   2.65410
    D1        2.89757   0.00004   0.00000   0.01018   0.01021   2.90778
    D2        0.56666  -0.00018   0.00000   0.01461   0.01465   0.58132
    D3       -0.53361   0.00023   0.00000  -0.01327  -0.01277  -0.54637
    D4       -2.86451   0.00000   0.00000  -0.00884  -0.00832  -2.87284
    D5        1.29851   0.00013   0.00000   0.00774   0.00805   1.30656
    D6       -1.03240  -0.00009   0.00000   0.01217   0.01250  -1.01990
    D7        1.52708   0.00016   0.00000   0.00396   0.00321   1.53029
    D8       -0.80383  -0.00007   0.00000   0.00839   0.00766  -0.79617
    D9        2.19584  -0.00002   0.00000   0.12054   0.12006   2.31590
   D10       -2.01391  -0.00017   0.00000   0.11379   0.11314  -1.90077
   D11        0.10412  -0.00011   0.00000   0.11368   0.11400   0.21812
   D12        3.08593   0.00030   0.00000   0.11170   0.11159  -3.08567
   D13       -1.12382   0.00016   0.00000   0.10496   0.10467  -1.01915
   D14        0.99421   0.00022   0.00000   0.10484   0.10553   1.09973
   D15       -1.24090   0.00017   0.00000   0.09684   0.09667  -1.14422
   D16        0.83254   0.00002   0.00000   0.09009   0.08976   0.92230
   D17        2.95057   0.00008   0.00000   0.08998   0.09061   3.04118
   D18        0.38779   0.00015   0.00000   0.13157   0.13114   0.51893
   D19        2.46123   0.00000   0.00000   0.12482   0.12422   2.58545
   D20       -1.70393   0.00006   0.00000   0.12471   0.12508  -1.57885
   D21       -2.33279   0.00017   0.00000  -0.06207  -0.06066  -2.39344
   D22       -2.54768  -0.00007   0.00000  -0.07106  -0.07023  -2.61790
   D23       -0.87551   0.00017   0.00000   0.10295   0.10468  -0.77083
   D24       -1.79000   0.00014   0.00000   0.07808   0.07917  -1.71083
   D25        2.27848   0.00010   0.00000   0.05788   0.05830   2.33678
   D26        1.36399   0.00008   0.00000   0.03301   0.03280   1.39678
         Item               Value     Threshold  Converged?
 Maximum Force            0.000844     0.000450     NO 
 RMS     Force            0.000236     0.000300     YES
 Maximum Displacement     0.167025     0.001800     NO 
 RMS     Displacement     0.043750     0.001200     NO 
 Predicted change in Energy=-1.845232D-04
 GradGradGradGradGradGradGradGradGradGradGradGradGradGradGradGradGradGrad

                          Input orientation:                          
 ---------------------------------------------------------------------
 Center     Atomic      Atomic             Coordinates (Angstroms)
 Number     Number       Type             X           Y           Z
 ---------------------------------------------------------------------
      1          6           0       -0.048665   -0.012058   -0.053282
      2          6           0       -0.048056    0.027066    1.402477
      3          8           0        1.352219    0.037790    1.178781
      4          1           0        0.106998    0.929635   -0.560058
      5          1           0       -0.428083   -0.870128    1.908630
      6          1           0       -0.447156    0.935279    1.871223
      7          6           0        0.140258   -1.279097   -0.828202
      8          1           0       -0.620835   -1.343286   -1.611975
      9          1           0        1.117346   -1.303488   -1.321900
     10          1           0        0.052910   -2.155359   -0.179066
     11          8           0       -2.210173    0.259383   -0.582914
     12          1           0       -2.463802    0.888214    0.108510
 ---------------------------------------------------------------------
                    Distance matrix (angstroms):
[...]
   A25        0.91821   0.00000   0.00000  -0.00005  -0.00005   0.91816
   A26        0.86337   0.00000   0.00000  -0.00001  -0.00001   0.86336
   A27        1.09462   0.00000   0.00000  -0.00008  -0.00008   1.09454
   A28        1.60385   0.00000   0.00000  -0.00006  -0.00006   1.60379
   A29        2.22488   0.00000   0.00000  -0.00006  -0.00006   2.22482
   A30        2.61520   0.00000   0.00000  -0.00009  -0.00009   2.61511
    D1        2.90719   0.00000   0.00000   0.00002   0.00002   2.90721
    D2        0.58314   0.00000   0.00000   0.00001   0.00001   0.58315
    D3       -0.53978   0.00000   0.00000   0.00002   0.00002  -0.53976
    D4       -2.86383   0.00000   0.00000   0.00001   0.00001  -2.86381
    D5        1.30293   0.00000   0.00000   0.00005   0.00005   1.30297
    D6       -1.02113   0.00000   0.00000   0.00004   0.00004  -1.02109
    D7        1.53221   0.00000   0.00000   0.00005   0.00005   1.53226
    D8       -0.79184   0.00000   0.00000   0.00005   0.00005  -0.79179
    D9        2.40388   0.00000   0.00000   0.00024   0.00024   2.40412
   D10       -1.81713   0.00000   0.00000   0.00027   0.00027  -1.81687
   D11        0.29979   0.00000   0.00000   0.00023   0.00023   0.30002
   D12       -2.99590   0.00000   0.00000   0.00025   0.00025  -2.99565
   D13       -0.93373   0.00000   0.00000   0.00028   0.00028  -0.93345
   D14        1.18319   0.00000   0.00000   0.00024   0.00024   1.18343
   D15       -1.04818   0.00000   0.00000   0.00024   0.00024  -1.04794
   D16        1.01399   0.00000   0.00000   0.00027   0.00027   1.01426
   D17        3.13091   0.00000   0.00000   0.00023   0.00023   3.13114
   D18        0.62312   0.00000   0.00000   0.00023   0.00023   0.62335
   D19        2.68529   0.00000   0.00000   0.00026   0.00026   2.68555
   D20       -1.48097   0.00000   0.00000   0.00022   0.00022  -1.48076
   D21       -2.43679   0.00000   0.00000  -0.00011  -0.00011  -2.43690
   D22       -2.65058   0.00000   0.00000  -0.00016  -0.00016  -2.65074
   D23       -0.66615   0.00000   0.00000   0.00035   0.00035  -0.66580
   D24       -1.59248   0.00000   0.00000   0.00039   0.00039  -1.59210
   D25        2.39370   0.00000   0.00000   0.00013   0.00013   2.39383
   D26        1.46737   0.00000   0.00000   0.00016   0.00016   1.46753
         Item               Value     Threshold  Converged?
 Maximum Force            0.000003     0.000450     YES
 RMS     Force            0.000001     0.000300     YES
 Maximum Displacement     0.000392     0.001800     YES
 RMS     Displacement     0.000092     0.001200     YES
 Predicted change in Energy=-7.930635D-10
 Optimization completed.
    -- Stationary point found.
                           ----------------------------
                           !   Optimized Parameters   !
                           ! (Angstroms and Degrees)  !
 --------------------------                            --------------------------
 ! Name  Definition              Value          Derivative Info.                !
 --------------------------------------------------------------------------------
 ! R1    R(1,2)                  1.4562         -DE/DX =    0.0                 !
 ! R2    R(1,3)                  1.8681         -DE/DX =    0.0                 !
 ! R3    R(1,4)                  1.081          -DE/DX =    0.0                 !
 ! R4    R(1,7)                  1.4969         -DE/DX =    0.0                 !
 ! R5    R(1,11)                 2.2465         -DE/DX =    0.0                 !
 ! R6    R(1,12)                 2.5579         -DE/DX =    0.0                 !
 ! R7    R(2,3)                  1.4179         -DE/DX =    0.0                 !
 ! R8    R(2,5)                  1.098          -DE/DX =    0.0                 !
 ! R9    R(2,6)                  1.0974         -DE/DX =    0.0                 !
 ! R10   R(4,11)                 2.4236         -DE/DX =    0.0                 !
 ! R11   R(7,8)                  1.0928         -DE/DX =    0.0                 !
 ! R12   R(7,9)                  1.095          -DE/DX =    0.0                 !
 ! R13   R(7,10)                 1.094          -DE/DX =    0.0                 !
 ! R14   R(7,11)                 2.8218         -DE/DX =    0.0                 !
 ! R15   R(8,11)                 2.5244         -DE/DX =    0.0                 !
 ! R16   R(11,12)                0.9682         -DE/DX =    0.0                 !
 ! A1    A(2,1,4)              116.6139         -DE/DX =    0.0                 !
 ! A2    A(2,1,7)              122.7158         -DE/DX =    0.0                 !
 ! A3    A(2,1,11)             102.8258         -DE/DX =    0.0                 !
 ! A4    A(2,1,12)              85.0557         -DE/DX =    0.0                 !
 ! A5    A(3,1,4)              100.4288         -DE/DX =    0.0                 !
 ! A6    A(3,1,7)              105.9224         -DE/DX =    0.0                 !
 ! A7    A(3,1,11)             150.5607         -DE/DX =    0.0                 !
 ! A8    A(3,1,12)             129.7742         -DE/DX =    0.0                 !
 ! A9    A(4,1,7)              118.3785         -DE/DX =    0.0                 !
 ! A10   A(4,1,12)              82.259          -DE/DX =    0.0                 !
 ! A11   A(7,1,12)             116.7005         -DE/DX =    0.0                 !
 ! A12   A(1,2,5)              115.9854         -DE/DX =    0.0                 !
 ! A13   A(1,2,6)              116.6161         -DE/DX =    0.0                 !
 ! A14   A(3,2,5)              114.8275         -DE/DX =    0.0                 !
 ! A15   A(3,2,6)              114.9444         -DE/DX =    0.0                 !
 ! A16   A(5,2,6)              110.6965         -DE/DX =    0.0                 !
 ! A17   A(1,7,8)              109.59           -DE/DX =    0.0                 !
 ! A18   A(1,7,9)              110.8149         -DE/DX =    0.0                 !
 ! A19   A(1,7,10)             111.3883         -DE/DX =    0.0                 !
 ! A20   A(8,7,9)              107.2397         -DE/DX =    0.0                 !
 ! A21   A(8,7,10)             108.8862         -DE/DX =    0.0                 !
 ! A22   A(9,7,10)             108.8114         -DE/DX =    0.0                 !
 ! A23   A(9,7,11)             146.6331         -DE/DX =    0.0                 !
 ! A24   A(10,7,11)            104.4477         -DE/DX =    0.0                 !
 ! A25   A(1,11,8)              52.6095         -DE/DX =    0.0                 !
 ! A26   A(4,11,7)              49.4673         -DE/DX =    0.0                 !
 ! A27   A(4,11,8)              62.717          -DE/DX =    0.0                 !
 ! A28   A(4,11,12)             91.8937         -DE/DX =    0.0                 !
 ! A29   A(7,11,12)            127.4763         -DE/DX =    0.0                 !
 ! A30   A(8,11,12)            149.8398         -DE/DX =    0.0                 !
 ! D1    D(4,1,2,5)            166.5697         -DE/DX =    0.0                 !
 ! D2    D(4,1,2,6)             33.4114         -DE/DX =    0.0                 !
 ! D3    D(7,1,2,5)            -30.9269         -DE/DX =    0.0                 !
 ! D4    D(7,1,2,6)           -164.0853         -DE/DX =    0.0                 !
 ! D5    D(11,1,2,5)            74.6521         -DE/DX =    0.0                 !
 ! D6    D(11,1,2,6)           -58.5063         -DE/DX =    0.0                 !
 ! D7    D(12,1,2,5)            87.7892         -DE/DX =    0.0                 !
 ! D8    D(12,1,2,6)           -45.3692         -DE/DX =    0.0                 !
 ! D9    D(2,1,7,8)            137.7323         -DE/DX =    0.0                 !
 ! D10   D(2,1,7,9)           -104.114          -DE/DX =    0.0                 !
 ! D11   D(2,1,7,10)            17.1766         -DE/DX =    0.0                 !
 ! D12   D(3,1,7,8)           -171.6524         -DE/DX =    0.0                 !
 ! D13   D(3,1,7,9)            -53.4987         -DE/DX =    0.0                 !
 ! D14   D(3,1,7,10)            67.7919         -DE/DX =    0.0                 !
 ! D15   D(4,1,7,8)            -60.0565         -DE/DX =    0.0                 !
 ! D16   D(4,1,7,9)             58.0972         -DE/DX =    0.0                 !
 ! D17   D(4,1,7,10)           179.3878         -DE/DX =    0.0                 !
 ! D18   D(12,1,7,8)            35.7022         -DE/DX =    0.0                 !
 ! D19   D(12,1,7,9)           153.8559         -DE/DX =    0.0                 !
 ! D20   D(12,1,7,10)          -84.8535         -DE/DX =    0.0                 !
 ! D21   D(2,1,11,8)          -139.618          -DE/DX =    0.0                 !
 ! D22   D(3,1,11,8)          -151.867          -DE/DX =    0.0                 !
 ! D23   D(9,7,11,4)           -38.1676         -DE/DX =    0.0                 !
 ! D24   D(9,7,11,12)          -91.2426         -DE/DX =    0.0                 !
 ! D25   D(10,7,11,4)          137.1489         -DE/DX =    0.0                 !
 ! D26   D(10,7,11,12)          84.074          -DE/DX =    0.0                 !
 --------------------------------------------------------------------------------
 GradGradGradGradGradGradGradGradGradGradGradGradGradGradGradGradGradGrad

 1\1\GINC-C35N02\Freq\RB3LYP\6-31++G(d,p)\C3H7O2(1-)\ROOT\26-Apr-2018\0
 \\#N Geom=AllCheck Guess=TCheck SCRF=Check GenChk RB3LYP/6-31++G(d,p) 
 Freq\\OH-BACK-MID\\-1,1\C,-0.0507654962,-0.0102756582,-0.0601962248\C,
 -0.043626561,0.0349422369,1.3953037243\O,1.3557098832,0.0553313981,1.1
 674934722\H,0.0945233328,0.9293028026,-0.5745922038\H,-0.4144948391,-0
 .8633317124,1.9063465034\H,-0.4499909265,0.9417622486,1.861028147\C,0.
 1359436547,-1.2797568467,-0.8311162195\H,-0.568343759,-1.3082390075,-1
 .6662671445\H,1.1441807512,-1.3329232008,-1.2549059003\H,-0.0279956895
 ,-2.1578277763,-0.1995521115\O,-2.2279221689,0.2365023701,-0.556131559
 7\H,-2.4442586069,0.8684643714,0.1448136505\\Version=EM64L-G09RevB.01\
 State=1-A\HF=-269.0576013\RMSD=7.423e-10\RMSF=2.555e-05\ZeroPoint=0.09
 54\Thermal=0.1021384\Dipole=0.8963085,-0.4588095,0.4129239\DipoleDeriv
 =2.91203,-0.2020154,1.337998,-0.2005187,0.4993374,0.1685139,0.8897932,
 0.1275547,0.9625693,0.4828191,0.0273798,-0.480749,-0.0018797,0.53833,-
 0.0087563,0.2835318,-0.040845,0.5817906,-2.4149202,-0.0097537,-0.58431
 6,-0.0550311,-0.8134527,-0.0779901,-1.1069212,-0.0418071,-1.4684865,-0
 .0521571,-0.0283834,-0.0401621,-0.0065999,-0.0420666,0.0263467,-0.0524
 404,0.0193923,0.0084079,-0.0205639,-0.0882494,0.1193388,-0.1124904,-0.
 1566462,0.1477808,0.0893348,0.0874206,-0.0279897,-0.0309445,0.0913025,
 0.1135271,0.1346782,-0.1604091,-0.1449325,0.0945108,-0.0978841,-0.0296
 018,0.0338011,0.0824741,0.0394674,0.0487633,-0.0315615,-0.1159169,0.01
 81453,-0.159329,-0.0957241,0.0149691,-0.015784,-0.1480483,0.0239582,0.
 0690326,-0.0361624,-0.1087928,-0.0168403,-0.025456,-0.1163987,0.028442
 7,0.1017516,-0.0009882,0.0409313,-0.0698158,0.073199,-0.023186,0.05596
 58,0.1002767,-0.0305744,0.0351091,-0.0204958,-0.0932653,0.0552746,0.03
 18721,0.1357252,-0.0081967,-2.2502762,0.1048451,-0.5258632,0.1449993,-
 1.065971,0.2616063,-0.2499324,0.222556,-1.0996482,0.3413647,0.0403161,
 0.0319465,0.0456048,0.2157411,-0.2059483,0.0376999,-0.2127573,0.146369
 3\Polar=110.7628897,-3.6595279,68.2100006,18.8334427,0.3122721,82.7747
 412\PG=C01 [X(C3H7O2)]\NImag=1\\0.00623618,0.02483942,0.62520593,-0.11
 802444,-0.04782620,0.59966261,0.02798063,0.00344510,0.05583951,0.42507
 859,-0.00125661,-0.07985171,-0.00497615,-0.00670633,0.60831114,-0.0072
 6580,-0.00484207,-0.33162034,-0.12310104,0.00015831,0.58946103,0.00473
 275,0.00130470,-0.00431869,-0.29537843,-0.00140667,0.05700805,0.366144
 33,0.00492620,-0.01646591,0.00553650,-0.00527672,-0.06437196,0.0014340
 3,0.00178516,0.05837572,0.06220565,0.00594839,0.01628196,0.00940620,0.
 00187668,-0.03616905,-0.05978221,-0.00171406,0.03127573,-0.02915878,-0
 .03945800,0.03438055,-0.00358368,-0.00994236,-0.00092196,-0.00232676,0
 .01053672,-0.01515065,0.04023577,-0.03624912,-0.29123735,0.12812714,-0
 .00091916,0.00400513,-0.00400185,0.00033728,0.00239563,-0.00208122,0.0
 3682768,0.29832201,0.02141901,0.12444428,-0.11945935,0.00273119,0.0236
 1998,-0.01383730,0.00218396,0.00105009,-0.00260809,-0.01981063,-0.1307
 7669,0.12776334,-0.00107786,0.00855496,-0.00496402,-0.06466243,-0.0589
 0267,0.03204679,-0.02463130,-0.02726608,0.02154318,0.00080886,-0.00036
 580,-0.00206333,0.08212787,-0.00078036,0.00025203,-0.00276002,-0.05716
 644,-0.23038930,0.09591104,-0.00696687,0.00791032,0.00037208,-0.000197
 55,0.00085304,-0.00036635,0.07055914,0.23947875,0.00827275,0.02757266,
 -0.01395515,0.03091067,0.09190146,-0.10478717,0.00768811,-0.00250629,0
 .00322493,0.00237052,-0.00084322,-0.00365222,-0.04431405,-0.10519608,0
 .10938995,-0.00146233,-0.00939817,-0.00317870,-0.06830383,0.06757381,0
 .03210001,-0.02632131,0.02699627,0.02012299,0.00012091,0.00058197,0.00
 043760,0.00609481,-0.00637046,-0.00317924,0.08710315,0.00071979,-0.000
 07235,0.00355977,0.06559401,-0.23600474,-0.08847583,0.00615199,0.00982
 035,0.00018335,0.00019644,0.00079571,-0.00009120,0.00735207,-0.0199968
 9,-0.01101810,-0.07945771,0.24446983,0.00792061,-0.02830387,-0.0108274
 3,0.03106363,-0.08433604,-0.09687050,0.00840509,0.00262331,0.00380186,
 -0.00088541,0.00042426,0.00142557,-0.00400156,0.01230581,0.00754882,-0
 .04445386,0.09654574,0.09908343,-0.06280536,0.01650339,0.02453982,-0.0
 0353739,0.00905543,-0.00437632,0.00471010,-0.01063225,-0.01122594,0.00
 367291,-0.00387647,-0.00146486,-0.00004374,0.00022374,-0.00060716,0.00
 048305,0.00031964,0.00253675,0.54968022,0.01689796,-0.20404470,-0.0631
 9772,-0.00115323,0.00176736,-0.00132257,-0.00104993,0.00082413,-0.0028
 9896,0.00439935,-0.01588746,-0.01466189,-0.00008935,0.00108310,0.00130
 878,0.00011785,0.00061358,0.00172906,0.00727869,0.52795545,0.00985327,
 -0.05458238,-0.11218151,0.00100631,-0.02315249,-0.01351492,-0.00027710
 ,-0.00577807,-0.01044798,-0.00040868,0.01267002,0.01021582,0.00084133,
 -0.00095205,0.00150456,-0.00160105,-0.00014360,-0.00302392,0.00427958,
 -0.04288914,0.55282226,0.00205470,0.00049398,0.00451906,-0.00117712,0.
 00070635,0.00140687,-0.00074459,-0.00075308,-0.00160001,0.00030131,-0.
 00020599,-0.00021808,0.00004752,0.00007719,-0.00008865,0.00025684,0.00
 008880,0.00017438,-0.15628479,-0.00586171,-0.13807823,0.17069376,-0.01
 731445,0.00185430,-0.01779518,-0.00117437,-0.00162881,-0.00124437,0.00
 025776,-0.00178000,-0.00351720,0.00071204,0.00062310,0.00114257,0.0002
 3521,0.00014555,0.00000540,-0.00009881,-0.00009294,-0.00033530,-0.0039
 2303,-0.04778760,-0.00312065,0.00313778,0.04744923,-0.01009869,-0.0002
 7287,-0.01444377,-0.00019909,-0.00168288,-0.00119943,0.00127949,-0.001
 12230,0.00026365,0.00034477,-0.00019859,0.00050407,0.00007964,-0.00012
 752,0.00014819,-0.00027063,-0.00015825,-0.00036190,-0.13562170,-0.0032
 7138,-0.20271535,0.14845912,0.00644523,0.21865866,-0.00230668,-0.00077
 365,-0.00100256,-0.00042499,0.00029515,-0.00070593,0.00062753,-0.00093
 170,-0.00106579,0.00045794,0.00037915,0.00017606,0.00003903,0.00000243
 ,-0.00004716,0.00034452,-0.00008431,-0.00002207,-0.27279419,0.01027135
 ,0.09681347,-0.01794024,0.00037846,0.00781360,0.29553850,0.02418908,0.
 00013552,-0.01349331,0.00194357,-0.00274502,0.00150022,-0.00199732,0.0
 0065596,0.00072827,-0.00090332,0.00093426,0.00065518,0.00011179,0.0000
 9672,-0.00011250,-0.00003745,-0.00003577,-0.00115193,0.00958000,-0.047
 45868,-0.00298015,-0.00059388,-0.00045539,0.00052998,-0.01088702,0.048
 08118,0.01398582,-0.00275489,-0.01242173,0.00180836,-0.00282156,0.0005
 3684,-0.00095630,0.00050486,0.00121151,-0.00055957,0.00004855,0.000474
 15,0.00007600,0.00000769,0.00026989,-0.00029002,-0.00033279,-0.0010207
 5,0.09559835,-0.00155549,-0.07990045,-0.02189748,0.00091817,0.01055070
 ,-0.10334927,0.00688561,0.08652437,-0.00018027,0.00372563,-0.00368313,
 0.00014089,0.00029715,0.00001164,-0.00056296,-0.00020540,0.00002214,0.
 00122991,0.00068887,0.00058619,-0.00011982,-0.00009724,-0.00015007,0.0
 0002601,-0.00001972,-0.00000938,-0.05367778,-0.03314417,0.02423982,0.0
 0427867,0.01728739,-0.01096750,-0.00259519,-0.02348067,0.01665358,0.05
 159446,-0.00403594,-0.02533226,0.01683352,0.00016183,0.00162481,0.0020
 2858,-0.00084553,0.00047032,-0.00061618,0.00048672,-0.00278809,-0.0033
 9221,-0.00003868,0.00046042,-0.00084224,0.00035302,0.00030883,0.000085
 59,-0.03238903,-0.21636832,0.12356472,0.00089785,0.00195993,-0.0014104
 8,-0.00012345,0.00201771,-0.00160915,0.03496059,0.23747590,-0.00274213
 ,-0.01649788,0.01056527,-0.00101462,-0.00113523,0.00120246,0.00001282,
 0.00011386,-0.00004691,0.00061860,-0.00299350,-0.00134278,0.00031897,0
 .00066004,0.00030348,0.00001030,0.00001617,0.00015749,0.02406216,0.128
 23833,-0.14141285,0.00560597,0.01782831,-0.01242483,0.00044999,0.00803
 214,-0.00676569,-0.02701527,-0.13444796,0.14961871,0.05610511,-0.01271
 331,0.01091681,-0.01593855,-0.00030291,0.01568407,-0.02774536,0.001224
 14,-0.02502928,-0.01134738,0.00294680,-0.00422130,0.00142495,0.0008469
 7,-0.00093342,0.00143275,-0.00064133,-0.00045525,-0.00738381,0.0012505
 8,0.00192981,-0.00039324,0.00027666,-0.00011583,-0.00033677,0.00152466
 ,-0.00072522,-0.00007957,0.00052050,-0.00023530,0.03451876,-0.01299949
 ,-0.00973713,-0.00295316,0.00144107,-0.00044165,-0.00246485,0.00349568
 ,0.00204853,0.00230086,-0.00259876,0.00201985,-0.00166191,-0.00020952,
 0.00008270,-0.00022709,-0.00016729,0.00017270,0.00032765,0.00715609,-0
 .00053162,-0.00181040,0.00152528,-0.00024149,0.00082003,0.00127588,-0.
 00119906,0.00049743,0.00007154,0.00017347,0.00018091,-0.06886621,0.229
 44122,0.01352584,-0.00342298,-0.01307874,-0.00758886,0.00007248,0.0073
 3861,-0.01081468,-0.00021631,-0.00617738,-0.00000289,-0.00042288,0.000
 64987,0.00037275,0.00015470,0.00003291,0.00032364,-0.00003034,0.000244
 62,0.00278770,-0.00148200,-0.00130392,0.00172544,-0.00039676,0.0008261
 4,0.00119124,-0.00074638,0.00042520,0.00024393,-0.00020435,0.00011118,
 -0.07907176,0.25058657,0.28653378,-0.00011809,0.00347595,0.00497579,-0
 .00019370,0.00058966,-0.00188638,0.00149600,-0.00040326,0.00055372,-0.
 00041100,-0.00014522,0.00024420,-0.00000789,-0.00013054,0.00007771,0.0
 0022542,-0.00021969,-0.00027292,-0.00201923,0.00108260,0.00140145,-0.0
 0109281,0.00022535,-0.00070317,-0.00060944,0.00055054,-0.00034425,-0.0
 0005434,0.00005211,-0.00007149,-0.03025690,0.06987574,0.07730764,0.033
 04199,0.00106353,-0.00070637,-0.00105520,-0.00018934,-0.00027527,0.001
 31937,-0.00106626,0.00011692,-0.00058200,-0.00005896,-0.00003585,0.000
 03813,0.00005892,0.00002357,-0.00004279,-0.00009303,0.00002170,0.00008
 571,0.00070380,-0.00016523,-0.00082582,0.00048742,-0.00004590,0.000449
 02,0.00019770,-0.00002744,0.00021157,-0.00008398,-0.00000271,0.0000048
 1,0.07393344,-0.22178751,-0.24389175,-0.07495324,0.22288408,0.00094810
 ,0.00053780,0.00147818,-0.00086226,0.00047543,-0.00054023,-0.00042853,
 0.00007435,-0.00061021,0.00002536,0.00004798,-0.00013310,0.00006430,-0
 .00000934,-0.00002819,-0.00002104,-0.00005492,-0.00015729,-0.00050837,
 0.00000299,-0.00004174,-0.00000841,0.00006979,0.00019387,-0.00025157,0
 .00015286,0.00011596,0.00006805,0.00001017,0.00003447,0.08225667,-0.24
 559605,-0.27560227,-0.08128231,0.24428894,0.27529055\\-0.00000627,0.00
 000481,-0.00000852,0.00000631,0.00002883,-0.00000872,-0.00000380,0.000
 05994,-0.00002233,-0.00003661,-0.00000599,-0.00002690,0.00002961,0.000
 03122,0.00001120,-0.00001185,0.00003012,-0.00002252,0.00001437,-0.0000
 0612,0.00001875,0.00000534,-0.00003960,0.00001939,0.00000921,0.0000060
 9,0.00000196,0.00004053,0.00000074,0.00003250,-0.00001973,-0.00005772,
 0.00000930,-0.00002713,-0.00005231,-0.00000411\\\@


 IT CANNOT BE MY BEAUTY, FOR I HAVE NONE; AND IT CANNOT BE MY WIT,
 FOR HE HAS NOT ENOUGH TO KNOW THAT I HAVE ANY.
 -- CATHARINE SEDLEY, PUZZLED ABOUT WHY SHE WAS MISTRESS TO JAMES II
 Job cpu time:  0 days  0 hours  7 minutes 41.4 seconds.
 File lengths (MBytes):  RWF=   2256 Int=      0 D2E=      0 Chk=     32 Scr=     32
 Normal termination of Gaussian 09 at Thu Apr 26 15:41:57 2018.
