 Entering Gaussian System, Link 0=g09
 Input=OH-term.gjf
 Output=OH-term.log
 Initial command:
 /share/home/zxchen/g09/l1.exe /scratch/zxchen/Gau-7797.inp -scrdir=/scratch/zxchen/
 Entering Link 1 = /share/home/zxchen/g09/l1.exe PID=      7798.
  
 Copyright (c) 1988,1990,1992,1993,1995,1998,2003,2009,2010,
            Gaussian, Inc.  All Rights Reserved.
  
 This is part of the Gaussian(R) 09 program.  It is based on
 the Gaussian(R) 03 system (copyright 2003, Gaussian, Inc.),
 the Gaussian(R) 98 system (copyright 1998, Gaussian, Inc.),
 the Gaussian(R) 94 system (copyright 1995, Gaussian, Inc.),
 the Gaussian 92(TM) system (copyright 1992, Gaussian, Inc.),
 the Gaussian 90(TM) system (copyright 1990, Gaussian, Inc.),
 the Gaussian 88(TM) system (copyright 1988, Gaussian, Inc.),
 the Gaussian 86(TM) system (copyright 1986, Carnegie Mellon
 University), and the Gaussian 82(TM) system (copyright 1983,
 Carnegie Mellon University). Gaussian is a federally registered
 trademark of Gaussian, Inc.
  
 This software contains proprietary and confidential information,
 including trade secrets, belonging to Gaussian, Inc.
  
 This software is provided under written license and may be
 used, copied, transmitted, or stored only in accord with that
 written license.
  
 The following legend is applicable only to US Government
 contracts under FAR:
  
                    RESTRICTED RIGHTS LEGEND
  
 Use, reproduction and disclosure by the US Government is
 subject to restrictions as set forth in subparagraphs (a)
 and (c) of the Commercial Computer Software - Restricted
 Rights clause in FAR 52.227-19.
  
 Gaussian, Inc.
 340 Quinnipiac St., Bldg. 40, Wallingford CT 06492
  
  
 ---------------------------------------------------------------
 Warning -- This program may not be used in any manner that
 competes with the business of Gaussian, Inc. or will provide
 assistance to any competitor of Gaussian, Inc.  The licensee
 of this program is prohibited from giving any competitor of
 Gaussian, Inc. access to this program.  By using this program,
 the user acknowledges that Gaussian, Inc. is engaged in the
 business of creating and licensing software in the field of
 computational chemistry and represents and warrants to the
 licensee that it is not a competitor of Gaussian, Inc. and that
 it will not use this program in any manner prohibited above.
 ---------------------------------------------------------------
  

 Cite this work as:
 Gaussian 09, Revision B.01,
 M. J. Frisch, G. W. Trucks, H. B. Schlegel, G. E. Scuseria, 
 M. A. Robb, J. R. Cheeseman, G. Scalmani, V. Barone, B. Mennucci, 
 G. A. Petersson, H. Nakatsuji, M. Caricato, X. Li, H. P. Hratchian, 
 A. F. Izmaylov, J. Bloino, G. Zheng, J. L. Sonnenberg, M. Hada, 
 M. Ehara, K. Toyota, R. Fukuda, J. Hasegawa, M. Ishida, T. Nakajima, 
 Y. Honda, O. Kitao, H. Nakai, T. Vreven, J. A. Montgomery, Jr., 
 J. E. Peralta, F. Ogliaro, M. Bearpark, J. J. Heyd, E. Brothers, 
 K. N. Kudin, V. N. Staroverov, T. Keith, R. Kobayashi, J. Normand, 
 K. Raghavachari, A. Rendell, J. C. Burant, S. S. Iyengar, J. Tomasi, 
 M. Cossi, N. Rega, J. M. Millam, M. Klene, J. E. Knox, J. B. Cross, 
 V. Bakken, C. Adamo, J. Jaramillo, R. Gomperts, R. E. Stratmann, 
 O. Yazyev, A. J. Austin, R. Cammi, C. Pomelli, J. W. Ochterski, 
 R. L. Martin, K. Morokuma, V. G. Zakrzewski, G. A. Voth, 
 P. Salvador, J. J. Dannenberg, S. Dapprich, A. D. Daniels, 
 O. Farkas, J. B. Foresman, J. V. Ortiz, J. Cioslowski, 
 and D. J. Fox, Gaussian, Inc., Wallingford CT, 2010.
 
 ******************************************
 Gaussian 09:  EM64L-G09RevB.01 12-Aug-2010
                26-Apr-2018 
 ******************************************
 %chk=OH-term.chk
 %nprocshared=24
 Will use up to   24 processors via shared memory.
 ----------------------------------------------------------------------
 # scrf=(smd,solvent=water) opt=(ts,noeigen,calcfc) freq b3lyp/6-31++g(
 d,p)
 ----------------------------------------------------------------------
 1/5=1,10=4,11=1,14=-1,18=20,26=3,38=1/1,3;
 2/9=110,12=2,17=6,18=5,40=1/2;
 3/5=1,6=6,7=1111,11=2,16=1,25=1,30=1,70=32201,71=2,72=1,74=-5/1,2,3;
 4//1;
 5/5=2,38=5,53=1/2;
 8/6=4,10=90,11=11/1;
 11/6=1,8=1,9=11,15=111,16=1/1,2,10;
 10/6=1,7=6,13=1/2;
 6/7=2,8=2,9=2,10=2,28=1/1;
 7/10=1,18=20,25=1/1,2,3,16;
 1/5=1,10=4,11=1,14=-1,18=20/3(2);
 2/9=110/2;
 99//99;
 2/9=110/2;
 3/5=1,6=6,7=1111,11=2,16=1,25=1,30=1,70=32205,71=1,72=1,74=-5/1,2,3;
 4/5=5,16=3/1;
 5/5=2,38=5,53=1/2;
 7//1,2,3,16;
 1/5=1,11=1,14=-1,18=20/3(-5);
 2/9=110/2;
 6/7=2,8=2,9=2,10=2,19=2,28=1/1;
 99/9=1/99;
 ------------
 OH-BACK-TERM
 ------------
 Symbolic Z-matrix:
 Charge = -1 Multiplicity = 1
 C
 C                    1    B1
 O                    1    B2       2    A1
 H                    1    B3       3    A2       2    D1       0
 H                    2    B4       1    A3       3    D2       0
 H                    2    B5       1    A4       3    D3       0
 C                    1    B6       3    A5       2    D4       0
 H                    7    B7       1    A6       3    D5       0
 H                    7    B8       1    A7       3    D6       0
 H                    7    B9       1    A8       3    D7       0
 O                    2    B10      1    A9       3    D8       0
 H                    11   B11      2    A10      1    D9       0
       Variables:
  B1                    1.45105                  
  B2                    1.41176                  
  B3                    1.10336                  
  B4                    1.077                    
  B5                    1.07624                  
  B6                    1.51817                  
  B7                    1.09539                  
  B8                    1.09677                  
  B9                    1.09905                  
  B10                   2.25423                  
  B11                   0.96938                  
  A1                   73.77724                  
  A2                  114.26379                  
  A3                  119.67225                  
  A4                  120.70896                  
  A5                  116.76665                  
  A6                  109.94688                  
  A7                  110.37907                  
  A8                  110.56531                  
  A9                  112.78327                  
  A10                 107.57383                  
  D1                  111.69335                  
  D2                  -87.97902                  
  D3                   87.02701                  
  D4                 -115.83669                  
  D5                   46.64418                  
  D6                  166.08725                  
  D7                  -72.93037                  
  D8                 -177.56122                  
  D9                  -41.67745                  
 

 GradGradGradGradGradGradGradGradGradGradGradGradGradGradGradGradGradGrad
 Berny optimization.
 Initialization pass.
                           ----------------------------
                           !    Initial Parameters    !
                           ! (Angstroms and Degrees)  !
 --------------------------                            --------------------------
 ! Name  Definition              Value          Derivative Info.                !
 --------------------------------------------------------------------------------
 ! R1    R(1,2)                  1.451          calculate D2E/DX2 analytically  !
 ! R2    R(1,3)                  1.4118         calculate D2E/DX2 analytically  !
 ! R3    R(1,4)                  1.1034         calculate D2E/DX2 analytically  !
 ! R4    R(1,7)                  1.5182         calculate D2E/DX2 analytically  !
 ! R5    R(2,3)                  1.7187         calculate D2E/DX2 analytically  !
 ! R6    R(2,5)                  1.077          calculate D2E/DX2 analytically  !
 ! R7    R(2,6)                  1.0762         calculate D2E/DX2 analytically  !
 ! R8    R(2,11)                 2.2542         calculate D2E/DX2 analytically  !
 ! R9    R(2,12)                 2.7094         calculate D2E/DX2 analytically  !
 ! R10   R(5,11)                 2.2983         calculate D2E/DX2 analytically  !
 ! R11   R(6,11)                 2.3755         calculate D2E/DX2 analytically  !
 ! R12   R(7,8)                  1.0954         calculate D2E/DX2 analytically  !
 ! R13   R(7,9)                  1.0968         calculate D2E/DX2 analytically  !
 ! R14   R(7,10)                 1.099          calculate D2E/DX2 analytically  !
 ! R15   R(11,12)                0.9694         calculate D2E/DX2 analytically  !
 ! A1    A(2,1,4)              116.0001         calculate D2E/DX2 analytically  !
 ! A2    A(2,1,7)              119.9626         calculate D2E/DX2 analytically  !
 ! A3    A(3,1,4)              114.2638         calculate D2E/DX2 analytically  !
 ! A4    A(3,1,7)              116.7666         calculate D2E/DX2 analytically  !
 ! A5    A(4,1,7)              111.3787         calculate D2E/DX2 analytically  !
 ! A6    A(1,2,5)              119.6722         calculate D2E/DX2 analytically  !
 ! A7    A(1,2,6)              120.709          calculate D2E/DX2 analytically  !
 ! A8    A(1,2,11)             112.7833         calculate D2E/DX2 analytically  !
 ! A9    A(1,2,12)              97.4201         calculate D2E/DX2 analytically  !
 ! A10   A(3,2,5)              106.2706         calculate D2E/DX2 analytically  !
 ! A11   A(3,2,6)              106.1878         calculate D2E/DX2 analytically  !
 ! A12   A(3,2,11)             164.7034         calculate D2E/DX2 analytically  !
 ! A13   A(3,2,12)             147.9601         calculate D2E/DX2 analytically  !
 ! A14   A(5,2,6)              119.4321         calculate D2E/DX2 analytically  !
 ! A15   A(5,2,12)              97.2967         calculate D2E/DX2 analytically  !
 ! A16   A(6,2,12)              79.5253         calculate D2E/DX2 analytically  !
 ! A17   A(1,7,8)              109.9469         calculate D2E/DX2 analytically  !
 ! A18   A(1,7,9)              110.3791         calculate D2E/DX2 analytically  !
 ! A19   A(1,7,10)             110.5653         calculate D2E/DX2 analytically  !
 ! A20   A(8,7,9)              108.3216         calculate D2E/DX2 analytically  !
 ! A21   A(8,7,10)             108.3333         calculate D2E/DX2 analytically  !
 ! A22   A(9,7,10)             109.2371         calculate D2E/DX2 analytically  !
 ! A23   A(5,11,6)              46.8494         calculate D2E/DX2 analytically  !
 ! A24   A(5,11,12)            132.6681         calculate D2E/DX2 analytically  !
 ! A25   A(6,11,12)            100.7131         calculate D2E/DX2 analytically  !
 ! D1    D(4,1,2,5)            162.4934         calculate D2E/DX2 analytically  !
 ! D2    D(4,1,2,6)            -22.5006         calculate D2E/DX2 analytically  !
 ! D3    D(4,1,2,11)            72.9112         calculate D2E/DX2 analytically  !
 ! D4    D(4,1,2,12)            59.6897         calculate D2E/DX2 analytically  !
 ! D5    D(7,1,2,5)             23.9624         calculate D2E/DX2 analytically  !
 ! D6    D(7,1,2,6)           -161.0316         calculate D2E/DX2 analytically  !
 ! D7    D(7,1,2,11)           -65.6198         calculate D2E/DX2 analytically  !
 ! D8    D(7,1,2,12)           -78.8413         calculate D2E/DX2 analytically  !
 ! D9    D(2,1,7,8)            -39.3194         calculate D2E/DX2 analytically  !
 ! D10   D(2,1,7,9)             80.1237         calculate D2E/DX2 analytically  !
 ! D11   D(2,1,7,10)          -158.894          calculate D2E/DX2 analytically  !
 ! D12   D(3,1,7,8)             46.6442         calculate D2E/DX2 analytically  !
 ! D13   D(3,1,7,9)            166.0872         calculate D2E/DX2 analytically  !
 ! D14   D(3,1,7,10)           -72.9304         calculate D2E/DX2 analytically  !
 ! D15   D(4,1,7,8)           -179.5891         calculate D2E/DX2 analytically  !
 ! D16   D(4,1,7,9)            -60.1461         calculate D2E/DX2 analytically  !
 ! D17   D(4,1,7,10)            60.8363         calculate D2E/DX2 analytically  !
 ! D18   D(6,5,11,2)            31.5055         calculate D2E/DX2 analytically  !
 ! D19   D(12,5,11,2)          -27.3263         calculate D2E/DX2 analytically  !
 ! D20   D(12,6,11,2)          107.9148         calculate D2E/DX2 analytically  !
 --------------------------------------------------------------------------------
 Trust Radius=3.00D-01 FncErr=1.00D-07 GrdErr=1.00D-06
 Number of steps in this run=     70 maximum allowed number of steps=    100.
 Search for a saddle point of order  1.
 GradGradGradGradGradGradGradGradGradGradGradGradGradGradGradGradGradGrad

                          Input orientation:                          
 ---------------------------------------------------------------------
 Center     Atomic      Atomic             Coordinates (Angstroms)
 Number     Number       Type             X           Y           Z
 ---------------------------------------------------------------------
      1          6           0        0.000000    0.000000    0.000000
      2          6           0        0.000000    0.000000    1.451048
      3          8           0        1.355550    0.000000    0.394408
      4          1           0       -0.331484    0.934651   -0.483683
      5          1           0        0.033000   -0.935188    1.984202
      6          1           0        0.047992    0.924080    2.000662
      7          6           0       -0.491461   -1.220001   -0.758227
      8          1           0       -0.155900   -2.133116   -0.254738
      9          1           0       -1.587529   -1.230139   -0.796197
     10          1           0       -0.093590   -1.223982   -1.782718
     11          8           0       -2.076465   -0.088438    2.323991
     12          1           0       -2.639270    0.502641    1.800951
 ---------------------------------------------------------------------
                    Distance matrix (angstroms):
                    1          2          3          4          5
     1  C    0.000000
     2  C    1.451048   0.000000
     3  O    1.411763   1.718722   0.000000
     4  H    1.103360   2.174084   2.119127   0.000000
     5  H    2.193792   1.076995   2.269617   3.117628   0.000000
     6  H    2.204286   1.076244   2.267969   2.513182   1.859401
     7  C    1.518172   2.571154   2.495680   2.177956   2.806616
     8  H    2.153922   2.735726   2.693707   3.081305   2.546285
     9  H    2.160421   3.013902   3.404776   2.522227   3.231676
    10  H    2.164481   3.458922   2.887563   2.530569   3.780094
    11  O    3.117766   2.254231   3.938253   3.460449   2.298323
    12  H    3.234474   2.709396   4.264927   3.275983   3.040059
                    6          7          8          9         10
     6  H    0.000000
     7  C    3.535472   0.000000
     8  H    3.804583   1.095391   0.000000
     9  H    3.890759   1.096772   1.777107   0.000000
    10  H    4.352951   1.099045   1.779081   1.790284   0.000000
    11  O    2.375511   3.645921   3.810397   3.358290   4.699608
    12  H    2.727430   3.758985   4.164157   3.294520   4.722754
                   11         12
    11  O    0.000000
    12  H    0.969378   0.000000
 Stoichiometry    C3H7O2(1-)
 Framework group  C1[X(C3H7O2)]
 Deg. of freedom    30
 Full point group                 C1      NOp   1
 Largest Abelian subgroup         C1      NOp   1
 Largest concise Abelian subgroup C1      NOp   1
                         Standard orientation:                         
 ---------------------------------------------------------------------
 Center     Atomic      Atomic             Coordinates (Angstroms)
 Number     Number       Type             X           Y           Z
 ---------------------------------------------------------------------
      1          6           0        0.681674    0.016016    0.442629
      2          6           0       -0.372005   -0.767548   -0.174890
      3          8           0        1.304906   -1.134206   -0.088073
      4          1           0        0.670549    0.057810    1.545141
      5          1           0       -0.597017   -0.629423   -1.219021
      6          1           0       -0.877233   -1.541033    0.377168
      7          6           0        1.085097    1.350799   -0.157745
      8          1           0        1.081353    1.285155   -1.251161
      9          1           0        0.378679    2.134002    0.143047
     10          1           0        2.096616    1.630841    0.168301
     11          8           0       -2.386049    0.239202   -0.067004
     12          1           0       -2.472391    0.627084    0.817183
 ---------------------------------------------------------------------
 Rotational constants (GHZ):      7.0591373      3.0988399      2.3440220
 Standard basis: 6-31++G(d,p) (6D, 7F)
 There are   137 symmetry adapted basis functions of A   symmetry.
 Integral buffers will be    131072 words long.
 Raffenetti 2 integral format.
 Two-electron integral symmetry is turned on.
   137 basis functions,   216 primitive gaussians,   137 cartesian basis functions
    21 alpha electrons       21 beta electrons
       nuclear repulsion energy       174.3246435389 Hartrees.
 NAtoms=   12 NActive=   12 NUniq=   12 SFac= 1.00D+00 NAtFMM=   50 NAOKFM=F Big=F
 ------------------------------------------------------------------------------
 Polarizable Continuum Model (PCM)
 =================================
 Model                : PCM.
 Atomic radii         : SMD-Coulomb.
 Polarization charges : Total charges.
 Charge compensation  : None.
 Solution method      : Matrix inversion.
 Cavity type          : VdW (van der Waals Surface) (Alpha=1.000).
 Cavity algorithm     : GePol (No added spheres)
                        Default sphere list used, NSphG=   12.
                        Lebedev-Laikov grids with approx.  5.0 points / Ang**2.
                        Smoothing algorithm: Karplus/York (Gamma=1.0000).
                        Polarization charges: spherical gaussians, with
                                              point-specific exponents (IZeta= 3).
                        Self-potential: point-specific (ISelfS= 7).
                        Self-field    : sphere-specific E.n sum rule (ISelfD= 2).
 1st derivatives      : Analytical E(r).r(x)/FMM algorithm (CHGder, D1EAlg=3).
                        Cavity 1st derivative terms included.
 2nd derivatives      : Analytical E(r).r(xy)/FMM algorithm (CHGder, D2EAlg=3).
                        Cavity 2nd derivative terms included.
 Solvent              : Water, Eps=  78.355300 Eps(inf)=   1.777849
 ------------------------------------------------------------------------------
 Spheres list:
 ISph  on   Nord    Re0     Alpha      Xe            Ye            Ze
    1   C      1    1.850   1.000      0.681674      0.016016      0.442629
    2   C      2    1.850   1.000     -0.372005     -0.767548     -0.174890
    3   O      3    1.520   1.000      1.304906     -1.134206     -0.088073
    4   H      4    1.200   1.000      0.670549      0.057810      1.545141
    5   H      5    1.200   1.000     -0.597017     -0.629423     -1.219021
    6   H      6    1.200   1.000     -0.877233     -1.541033      0.377168
    7   C      7    1.850   1.000      1.085097      1.350799     -0.157745
    8   H      8    1.200   1.000      1.081353      1.285155     -1.251161
    9   H      9    1.200   1.000      0.378679      2.134002      0.143047
   10   H     10    1.200   1.000      2.096616      1.630841      0.168301
   11   O     11    1.520   1.000     -2.386049      0.239202     -0.067004
   12   H     12    1.200   1.000     -2.472391      0.627084      0.817183
 ------------------------------------------------------------------------------
 ------------------------------------------------------------------------------
 Atomic radii for non-electrostatic terms: SMD-CDS.
 ------------------------------------------------------------------------------
 Nuclear repulsion after PCM non-electrostatic terms =      174.3288157303 Hartrees.
 One-electron integrals computed using PRISM.
 PrsmSu:  requested number of processors reduced to:  10 ShMem   1 Linda.
 NBasis=   137 RedAO= T  NBF=   137
 NBsUse=   137 1.00D-06 NBFU=   137
 Harris functional with IExCor=  402 diagonalized for initial guess.
 ExpMin= 3.60D-02 ExpMax= 5.48D+03 ExpMxC= 8.25D+02 IAcc=3 IRadAn=         0 AccDes= 0.00D+00
 HarFok:  IExCor=  402 AccDes= 0.00D+00 IRadAn=         0 IDoV= 1
 ScaDFX=  1.000000  1.000000  1.000000  1.000000
 FoFCou: FMM=F IPFlag=           0 FMFlag=      100000 FMFlg1=           0
         NFxFlg=           0 DoJE=T BraDBF=F KetDBF=T FulRan=T
         Omega=  0.000000  0.000000  1.000000  0.000000  0.000000 ICntrl=     500 IOpCl=  0
         NMat0=    1 NMatS0=    1 NMatT0=    0 NMatD0=    1 NMtDS0=    0 NMtDT0=    0
         I1Cent=           4 NGrid=           0.
 Petite list used in FoFCou.
 Initial guess orbital symmetries:
       Occupied  (A) (A) (A) (A) (A) (A) (A) (A) (A) (A) (A) (A)
                 (A) (A) (A) (A) (A) (A) (A) (A) (A)
       Virtual   (A) (A) (A) (A) (A) (A) (A) (A) (A) (A) (A) (A)
                 (A) (A) (A) (A) (A) (A) (A) (A) (A) (A) (A) (A)
                 (A) (A) (A) (A) (A) (A) (A) (A) (A) (A) (A) (A)
                 (A) (A) (A) (A) (A) (A) (A) (A) (A) (A) (A) (A)
                 (A) (A) (A) (A) (A) (A) (A) (A) (A) (A) (A) (A)
                 (A) (A) (A) (A) (A) (A) (A) (A) (A) (A) (A) (A)
                 (A) (A) (A) (A) (A) (A) (A) (A) (A) (A) (A) (A)
                 (A) (A) (A) (A) (A) (A) (A) (A) (A) (A) (A) (A)
                 (A) (A) (A) (A) (A) (A) (A) (A) (A) (A) (A) (A)
                 (A) (A) (A) (A) (A) (A) (A) (A)
 The electronic state of the initial guess is 1-A.
 Requested convergence on RMS density matrix=1.00D-08 within 128 cycles.
 Requested convergence on MAX density matrix=1.00D-06.
 Requested convergence on             energy=1.00D-06.
 No special actions if energy rises.
 CoulSu:  requested number of processors reduced to:  15 ShMem   1 Linda.
 CoulSu:  requested number of processors reduced to:  15 ShMem   1 Linda.
 CoulSu:  requested number of processors reduced to:  15 ShMem   1 Linda.
 CoulSu:  requested number of processors reduced to:  15 ShMem   1 Linda.
 CoulSu:  requested number of processors reduced to:  15 ShMem   1 Linda.
 CoulSu:  requested number of processors reduced to:  15 ShMem   1 Linda.
 CoulSu:  requested number of processors reduced to:  15 ShMem   1 Linda.
 CoulSu:  requested number of processors reduced to:  15 ShMem   1 Linda.
 CoulSu:  requested number of processors reduced to:  15 ShMem   1 Linda.
 CoulSu:  requested number of processors reduced to:  15 ShMem   1 Linda.
 CoulSu:  requested number of processors reduced to:  15 ShMem   1 Linda.
 CoulSu:  requested number of processors reduced to:  15 ShMem   1 Linda.
 CoulSu:  requested number of processors reduced to:  15 ShMem   1 Linda.
 CoulSu:  requested number of processors reduced to:  15 ShMem   1 Linda.
 CoulSu:  requested number of processors reduced to:  15 ShMem   1 Linda.
 CoulSu:  requested number of processors reduced to:  15 ShMem   1 Linda.
 Error on total polarization charges =  0.07638
 SCF Done:  E(RB3LYP) =  -269.063158387     A.U. after   13 cycles
             Convg  =    0.1947D-08             -V/T =  2.0097
 SMD-CDS (non-electrostatic) energy       (kcal/mol) =       2.62
 (included in total energy above)
 Range of M.O.s used for correlation:     1   137
 NBasis=   137 NAE=    21 NBE=    21 NFC=     0 NFV=     0
 NROrb=    137 NOA=    21 NOB=    21 NVA=   116 NVB=   116

 **** Warning!!: The largest alpha MO coefficient is  0.39038088D+02

 PrsmSu:  requested number of processors reduced to:  10 ShMem   1 Linda.
 PrsmSu:  requested number of processors reduced to:  18 ShMem   1 Linda.
 Symmetrizing basis deriv contribution to polar:
 IMax=3 JMax=2 DiffMx= 0.00D+00
 G2DrvN: will do     4 centers at a time, making    4 passes doing MaxLOS=2.
 Estimated number of processors is:   15
 Calling FoFCou, ICntrl=  3107 FMM=F I1Cent=   0 AccDes= 0.00D+00.
 CoulSu:  requested number of processors reduced to:  15 ShMem   1 Linda.
 Calling FoFCou, ICntrl=  3107 FMM=F I1Cent=   0 AccDes= 0.00D+00.
 CoulSu:  requested number of processors reduced to:  15 ShMem   1 Linda.
 Calling FoFCou, ICntrl=  3107 FMM=F I1Cent=   0 AccDes= 0.00D+00.
 CoulSu:  requested number of processors reduced to:  15 ShMem   1 Linda.
 Calling FoFCou, ICntrl=  3107 FMM=F I1Cent=   0 AccDes= 0.00D+00.
 CoulSu:  requested number of processors reduced to:  15 ShMem   1 Linda.
 FoFDir/FoFCou used for L=0 through L=2.
 G2PCM: DoFxE=T DoFxN=T DoGrad=T DoPD/DQ/DG=FFF NFrqRd=   0 IEInf=0 DoCFld=F IF1Alg=4.
 CoulSu:  requested number of processors reduced to:  22 ShMem   1 Linda.
 CoulSu:  requested number of processors reduced to:  22 ShMem   1 Linda.
 CoulSu:  requested number of processors reduced to:  23 ShMem   1 Linda.
 CoulSu:  requested number of processors reduced to:  15 ShMem   1 Linda.
 CoulSu:  requested number of processors reduced to:  10 ShMem   1 Linda.
 CoulSu:  requested number of processors reduced to:  22 ShMem   1 Linda.
 CoulSu:  requested number of processors reduced to:  22 ShMem   1 Linda.
 CoulSu:  requested number of processors reduced to:  15 ShMem   1 Linda.
 CoulSu:  requested number of processors reduced to:  23 ShMem   1 Linda.
 CoulSu:  requested number of processors reduced to:  23 ShMem   1 Linda.
 CoulSu:  requested number of processors reduced to:  11 ShMem   1 Linda.
 CoulSu:  requested number of processors reduced to:  15 ShMem   1 Linda.
 CoulSu:  requested number of processors reduced to:  22 ShMem   1 Linda.
 CoulSu:  requested number of processors reduced to:  22 ShMem   1 Linda.
 CoulSu:  requested number of processors reduced to:  22 ShMem   1 Linda.
 CoulSu:  requested number of processors reduced to:  22 ShMem   1 Linda.
 CoulSu:  requested number of processors reduced to:  22 ShMem   1 Linda.
 CoulSu:  requested number of processors reduced to:  22 ShMem   1 Linda.
 CoulSu:  requested number of processors reduced to:  22 ShMem   1 Linda.
 CoulSu:  requested number of processors reduced to:  22 ShMem   1 Linda.
 CoulSu:  requested number of processors reduced to:  22 ShMem   1 Linda.
 CoulSu:  requested number of processors reduced to:  22 ShMem   1 Linda.
 CoulSu:  requested number of processors reduced to:  22 ShMem   1 Linda.
 CoulSu:  requested number of processors reduced to:  22 ShMem   1 Linda.
 CoulSu:  requested number of processors reduced to:  22 ShMem   1 Linda.
 CoulSu:  requested number of processors reduced to:  22 ShMem   1 Linda.
 CoulSu:  requested number of processors reduced to:  22 ShMem   1 Linda.
 CoulSu:  requested number of processors reduced to:  22 ShMem   1 Linda.
 CoulSu:  requested number of processors reduced to:  22 ShMem   1 Linda.
 CoulSu:  requested number of processors reduced to:  22 ShMem   1 Linda.
 CoulSu:  requested number of processors reduced to:  22 ShMem   1 Linda.
 CoulSu:  requested number of processors reduced to:  22 ShMem   1 Linda.
 CoulSu:  requested number of processors reduced to:  22 ShMem   1 Linda.
 CoulSu:  requested number of processors reduced to:  22 ShMem   1 Linda.
 CoulSu:  requested number of processors reduced to:  22 ShMem   1 Linda.
 CoulSu:  requested number of processors reduced to:  22 ShMem   1 Linda.
 CoulSu:  requested number of processors reduced to:  15 ShMem   1 Linda.
 CoulSu:  requested number of processors reduced to:  23 ShMem   1 Linda.
 CoulSu:  requested number of processors reduced to:  23 ShMem   1 Linda.
 CoulSu:  requested number of processors reduced to:  15 ShMem   1 Linda.
 CoulSu:  requested number of processors reduced to:  10 ShMem   1 Linda.
 CoulSu:  requested number of processors reduced to:  10 ShMem   1 Linda.
 CoulSu:  requested number of processors reduced to:  23 ShMem   1 Linda.
 CoulSu:  requested number of processors reduced to:  23 ShMem   1 Linda.
 CoulSu:  requested number of processors reduced to:  22 ShMem   1 Linda.
 CoulSu:  requested number of processors reduced to:  22 ShMem   1 Linda.
 CoulSu:  requested number of processors reduced to:  15 ShMem   1 Linda.
 CoulSu:  requested number of processors reduced to:  10 ShMem   1 Linda.
 CoulSu:  requested number of processors reduced to:  10 ShMem   1 Linda.
 CoulSu:  requested number of processors reduced to:  23 ShMem   1 Linda.
 CoulSu:  requested number of processors reduced to:  23 ShMem   1 Linda.
 End of G2Drv Frequency-dependent properties file   721 does not exist.
 End of G2Drv Frequency-dependent properties file   722 does not exist.
          IDoAtm=111111111111
 NEqPCM:  Using equilibrium solvation (IEInf=0, Eps=  78.3553, EpsInf=   1.7778)
          Differentiating once with respect to nuclear coordinates.
 PrRfSu:  requested number of processors reduced to:  15 ShMem   1 Linda.
 CalDSu:  requested number of processors reduced to:  19 ShMem   1 Linda.
          There are    39 degrees of freedom in the 1st order CPHF.  IDoFFX=5.
     33 vectors produced by pass  0 Test12= 6.25D-11 2.56D-07 XBig12= 1.32D-01 1.04D-01.
 AX will form    33 AO Fock derivatives at one time.
 PrRfSu:  requested number of processors reduced to:  16 ShMem   1 Linda.
 CalDSu:  requested number of processors reduced to:  20 ShMem   1 Linda.
     33 vectors produced by pass  1 Test12= 6.25D-11 2.56D-07 XBig12= 2.00D-02 3.41D-02.
 PrRfSu:  requested number of processors reduced to:  16 ShMem   1 Linda.
 CalDSu:  requested number of processors reduced to:  20 ShMem   1 Linda.
     33 vectors produced by pass  2 Test12= 6.25D-11 2.56D-07 XBig12= 2.47D-04 2.02D-03.
 PrRfSu:  requested number of processors reduced to:  16 ShMem   1 Linda.
 CalDSu:  requested number of processors reduced to:  20 ShMem   1 Linda.
     33 vectors produced by pass  3 Test12= 6.25D-11 2.56D-07 XBig12= 6.52D-07 1.63D-04.
 PrRfSu:  requested number of processors reduced to:  16 ShMem   1 Linda.
 CalDSu:  requested number of processors reduced to:  20 ShMem   1 Linda.
     17 vectors produced by pass  4 Test12= 6.25D-11 2.56D-07 XBig12= 1.46D-09 5.40D-06.
 PrRfSu:  requested number of processors reduced to:  17 ShMem   1 Linda.
 CalDSu:  requested number of processors reduced to:  23 ShMem   1 Linda.
 Inverted reduced A of dimension   149 with in-core refinement.
 End of Minotr Frequency-dependent properties file   721 does not exist.
 End of Minotr Frequency-dependent properties file   722 does not exist.

 **********************************************************************

            Population analysis using the SCF density.

 **********************************************************************

 Orbital symmetries:
       Occupied  (A) (A) (A) (A) (A) (A) (A) (A) (A) (A) (A) (A)
                 (A) (A) (A) (A) (A) (A) (A) (A) (A)
       Virtual   (A) (A) (A) (A) (A) (A) (A) (A) (A) (A) (A) (A)
                 (A) (A) (A) (A) (A) (A) (A) (A) (A) (A) (A) (A)
                 (A) (A) (A) (A) (A) (A) (A) (A) (A) (A) (A) (A)
                 (A) (A) (A) (A) (A) (A) (A) (A) (A) (A) (A) (A)
                 (A) (A) (A) (A) (A) (A) (A) (A) (A) (A) (A) (A)
                 (A) (A) (A) (A) (A) (A) (A) (A) (A) (A) (A) (A)
                 (A) (A) (A) (A) (A) (A) (A) (A) (A) (A) (A) (A)
                 (A) (A) (A) (A) (A) (A) (A) (A) (A) (A) (A) (A)
                 (A) (A) (A) (A) (A) (A) (A) (A) (A) (A) (A) (A)
                 (A) (A) (A) (A) (A) (A) (A) (A)
 The electronic state is 1-A.
 Alpha  occ. eigenvalues --  -19.13126 -19.06585 -10.23002 -10.22893 -10.16994
 Alpha  occ. eigenvalues --   -1.00184  -0.87168  -0.73038  -0.67019  -0.56896
 Alpha  occ. eigenvalues --   -0.48389  -0.44529  -0.41510  -0.38186  -0.37072
 Alpha  occ. eigenvalues --   -0.35308  -0.34266  -0.30035  -0.25574  -0.23324
 Alpha  occ. eigenvalues --   -0.22009
 Alpha virt. eigenvalues --    0.00227   0.01021   0.02474   0.02655   0.05201
 Alpha virt. eigenvalues --    0.05469   0.05975   0.06651   0.08147   0.09424
 Alpha virt. eigenvalues --    0.10396   0.11537   0.12295   0.13382   0.14796
 Alpha virt. eigenvalues --    0.15220   0.15800   0.16505   0.17325   0.17805
 Alpha virt. eigenvalues --    0.18646   0.20551   0.21495   0.22492   0.22948
 Alpha virt. eigenvalues --    0.24878   0.26165   0.27671   0.28494   0.30718
 Alpha virt. eigenvalues --    0.32045   0.33000   0.33920   0.35666   0.36277
 Alpha virt. eigenvalues --    0.37663   0.41221   0.43026   0.63803   0.67749
 Alpha virt. eigenvalues --    0.70256   0.75279   0.76914   0.77281   0.80036
 Alpha virt. eigenvalues --    0.84502   0.91365   0.97389   0.98412   1.00512
 Alpha virt. eigenvalues --    1.04444   1.05875   1.10412   1.12301   1.13190
 Alpha virt. eigenvalues --    1.17467   1.22946   1.25458   1.27131   1.29440
 Alpha virt. eigenvalues --    1.33170   1.34184   1.39841   1.43454   1.46284
 Alpha virt. eigenvalues --    1.55706   1.62922   1.63813   1.65815   1.68908
 Alpha virt. eigenvalues --    1.72293   1.77089   1.82200   1.83933   1.89460
 Alpha virt. eigenvalues --    1.93645   1.96141   1.99823   2.05522   2.07532
 Alpha virt. eigenvalues --    2.10045   2.11752   2.12911   2.14657   2.22456
 Alpha virt. eigenvalues --    2.26955   2.33419   2.38723   2.42091   2.50402
 Alpha virt. eigenvalues --    2.57620   2.62839   2.64685   2.65656   2.68838
 Alpha virt. eigenvalues --    2.71401   2.71789   2.74546   2.77444   2.82015
 Alpha virt. eigenvalues --    2.87092   2.88398   3.00858   3.06303   3.26157
 Alpha virt. eigenvalues --    3.34599   3.46385   3.48395   3.49047   3.51151
 Alpha virt. eigenvalues --    3.57568   4.17951   4.25119   4.41661   4.52364
 Alpha virt. eigenvalues --    4.67685
          Condensed to atoms (all electrons):
              1          2          3          4          5          6
     1  C    5.886557  -0.015405   0.009311   0.333013  -0.020315  -0.057765
     2  C   -0.015405   5.328223   0.029272   0.001331   0.409845   0.433791
     3  O    0.009311   0.029272   8.750862  -0.043992  -0.034188  -0.023983
     4  H    0.333013   0.001331  -0.043992   0.604403   0.007057  -0.013902
     5  H   -0.020315   0.409845  -0.034188   0.007057   0.479077  -0.030174
     6  H   -0.057765   0.433791  -0.023983  -0.013902  -0.030174   0.494798
     7  C   -0.140900   0.056840  -0.081155  -0.039996  -0.010216   0.017154
     8  H   -0.086612   0.003100   0.014339   0.009332   0.006914  -0.001499
     9  H   -0.059941  -0.002697   0.011549   0.002181  -0.000653   0.000058
    10  H   -0.019176   0.002785  -0.009498  -0.008846   0.001629  -0.001275
    11  O   -0.038672  -0.067819   0.026796  -0.002179  -0.023666  -0.016585
    12  H   -0.002965   0.010991  -0.000345  -0.001071  -0.001237  -0.001197
              7          8          9         10         11         12
     1  C   -0.140900  -0.086612  -0.059941  -0.019176  -0.038672  -0.002965
     2  C    0.056840   0.003100  -0.002697   0.002785  -0.067819   0.010991
     3  O   -0.081155   0.014339   0.011549  -0.009498   0.026796  -0.000345
     4  H   -0.039996   0.009332   0.002181  -0.008846  -0.002179  -0.001071
     5  H   -0.010216   0.006914  -0.000653   0.001629  -0.023666  -0.001237
     6  H    0.017154  -0.001499   0.000058  -0.001275  -0.016585  -0.001197
     7  C    5.584776   0.414310   0.403512   0.391586  -0.012136   0.001344
     8  H    0.414310   0.522675  -0.015398  -0.030850   0.000490   0.000480
     9  H    0.403512  -0.015398   0.521385  -0.026223   0.005829  -0.000034
    10  H    0.391586  -0.030850  -0.026223   0.528696  -0.000676  -0.000015
    11  O   -0.012136   0.000490   0.005829  -0.000676   9.090146   0.218452
    12  H    0.001344   0.000480  -0.000034  -0.000015   0.218452   0.448332
 Mulliken atomic charges:
              1
     1  C    0.212871
     2  C   -0.190257
     3  O   -0.648968
     4  H    0.152670
     5  H    0.215927
     6  H    0.200579
     7  C   -0.585121
     8  H    0.162720
     9  H    0.160434
    10  H    0.171863
    11  O   -1.179981
    12  H    0.327264
 Sum of Mulliken atomic charges =  -1.00000
 Mulliken charges with hydrogens summed into heavy atoms:
              1
     1  C    0.365540
     2  C    0.226248
     3  O   -0.648968
     7  C   -0.090104
    11  O   -0.852717
 Sum of Mulliken charges with hydrogens summed into heavy atoms =  -1.00000
 APT atomic charges:
              1
     1  C   -0.064977
     2  C   -0.590295
     3  O   -0.705858
     4  H    0.383381
     5  H    0.416453
     6  H    0.500681
     7  C   -1.228629
     8  H    0.324532
     9  H    0.352145
    10  H    0.511948
    11  O   -1.393346
    12  H    0.493965
 Sum of APT charges=  -1.00000
 APT Atomic charges with hydrogens summed into heavy atoms:
              1
     1  C    0.318404
     2  C    0.326839
     3  O   -0.705858
     4  H    0.000000
     5  H    0.000000
     6  H    0.000000
     7  C   -0.040004
     8  H    0.000000
     9  H    0.000000
    10  H    0.000000
    11  O   -0.899381
    12  H    0.000000
 Sum of APT charges=  -1.00000
 Electronic spatial extent (au):  <R**2>=            559.7090
 Charge=             -1.0000 electrons
 Dipole moment (field-independent basis, Debye):
    X=              5.9120    Y=              2.2537    Z=              2.4451  Tot=              6.7830
 Quadrupole moment (field-independent basis, Debye-Ang):
   XX=            -65.5683   YY=            -38.3804   ZZ=            -32.0606
   XY=              7.8892   XZ=             -3.5161   YZ=              1.1030
 Traceless Quadrupole moment (field-independent basis, Debye-Ang):
   XX=            -20.2318   YY=              6.9560   ZZ=             13.2758
   XY=              7.8892   XZ=             -3.5161   YZ=              1.1030
 Octapole moment (field-independent basis, Debye-Ang**2):
  XXX=             67.9094  YYY=              2.4997  ZZZ=              1.8752  XYY=             -5.0653
  XXY=              4.4850  XXZ=             14.8176  XZZ=             -1.0874  YZZ=             -0.2533
  YYZ=              2.6904  XYZ=             -3.9371
 Hexadecapole moment (field-independent basis, Debye-Ang**3):
 XXXX=           -683.3950 YYYY=           -231.4229 ZZZZ=            -68.2625 XXXY=             20.5146
 XXXZ=            -31.0665 YYYX=             10.7294 YYYZ=              2.2472 ZZZX=             -3.6041
 ZZZY=              1.5988 XXYY=           -130.0289 XXZZ=            -88.1034 YYZZ=            -50.1179
 XXYZ=              9.6298 YYXZ=             -3.7938 ZZXY=              0.0447
 N-N= 1.743288157303D+02 E-N=-9.866900280163D+02  KE= 2.664846188070D+02
  Exact polarizability:   0.000   0.000   0.000   0.000   0.000   0.000
 Approx polarizability:  98.687 -10.639  70.016   0.282   2.680  63.500
 PrsmSu:  requested number of processors reduced to:  10 ShMem   1 Linda.
 PrsmSu:  requested number of processors reduced to:  11 ShMem   1 Linda.
 D2PCM: PCM CHGder 2nd derivatives, FixD1E=F FixD2E=F DoIter=F DoCFld=F I1PDM=0
 CoulSu:  requested number of processors reduced to:  10 ShMem   1 Linda.
 CoulSu:  requested number of processors reduced to:  10 ShMem   1 Linda.
 CoulSu:  requested number of processors reduced to:  10 ShMem   1 Linda.
 CoulSu:  requested number of processors reduced to:  15 ShMem   1 Linda.
 CoulSu:  requested number of processors reduced to:  22 ShMem   1 Linda.
 CoulSu:  requested number of processors reduced to:  10 ShMem   1 Linda.
 CoulSu:  requested number of processors reduced to:  10 ShMem   1 Linda.
 CoulSu:  requested number of processors reduced to:  10 ShMem   1 Linda.
 CoulSu:  requested number of processors reduced to:  22 ShMem   1 Linda.
 CoulSu:  requested number of processors reduced to:  10 ShMem   1 Linda.
 CoulSu:  requested number of processors reduced to:  10 ShMem   1 Linda.
 CoulSu:  requested number of processors reduced to:  10 ShMem   1 Linda.
 CoulSu:  requested number of processors reduced to:  10 ShMem   1 Linda.
 CoulSu:  requested number of processors reduced to:  10 ShMem   1 Linda.
 CoulSu:  requested number of processors reduced to:  10 ShMem   1 Linda.
 CoulSu:  requested number of processors reduced to:  10 ShMem   1 Linda.
 CoulSu:  requested number of processors reduced to:  10 ShMem   1 Linda.
 CoulSu:  requested number of processors reduced to:  10 ShMem   1 Linda.
 CoulSu:  requested number of processors reduced to:  22 ShMem   1 Linda.
 CoulSu:  requested number of processors reduced to:  22 ShMem   1 Linda.
 CoulSu:  requested number of processors reduced to:  21 ShMem   1 Linda.
 CoulSu:  requested number of processors reduced to:  22 ShMem   1 Linda.
 CoulSu:  requested number of processors reduced to:  22 ShMem   1 Linda.
 CoulSu:  requested number of processors reduced to:  10 ShMem   1 Linda.
 Calling FoFJK, ICntrl=    100147 FMM=F ISym2X=0 I1Cent= 0 IOpClX= 0 NMat=1 NMatS=1 NMatT=0.
 CoulSu:  requested number of processors reduced to:  11 ShMem   1 Linda.
 ***** Axes restored to original set *****
 -------------------------------------------------------------------
 Center     Atomic                   Forces (Hartrees/Bohr)
 Number     Number              X              Y              Z
 -------------------------------------------------------------------
      1        6          -0.016864467    0.001402364   -0.010810407
      2        6           0.014597942    0.000167674   -0.004744197
      3        8           0.003745029    0.000314316    0.008857896
      4        1           0.002646289   -0.002209102    0.002022653
      5        1           0.002871877   -0.001087103   -0.000251024
      6        1           0.001713492    0.001372686   -0.000215618
      7        6           0.003409438    0.000255855    0.001683130
      8        1          -0.000329144   -0.000816070   -0.000314723
      9        1           0.000875561    0.000479139   -0.001545087
     10        1          -0.001893429    0.000335344    0.001598320
     11        8          -0.011893412    0.000118755    0.003598233
     12        1           0.001120823   -0.000333858    0.000120823
 -------------------------------------------------------------------
 Cartesian Forces:  Max     0.016864467 RMS     0.005117035

 GradGradGradGradGradGradGradGradGradGradGradGradGradGradGradGradGradGrad
 Berny optimization.
 Internal  Forces:  Max     0.007701793 RMS     0.001970136
 Search for a saddle point.
 Step number   1 out of a maximum of   70
 All quantities printed in internal units (Hartrees-Bohrs-Radians)
 Swaping is turned off.
 Second derivative matrix not updated -- analytic derivatives used.
 ITU=  0
     Eigenvalues ---   -0.01784   0.00026   0.00160   0.00234   0.00776
     Eigenvalues ---    0.01128   0.01560   0.01771   0.02846   0.04315
     Eigenvalues ---    0.04424   0.05435   0.06067   0.08203   0.09226
     Eigenvalues ---    0.12112   0.12504   0.13251   0.15590   0.21963
     Eigenvalues ---    0.28805   0.31366   0.33076   0.33431   0.33588
     Eigenvalues ---    0.34155   0.35608   0.35825   0.40820   0.42660
 Eigenvectors required to have negative eigenvalues:
                          R8        R5        R9        D2        D5
   1                   -0.48400   0.48036  -0.31818  -0.26217   0.25986
                          A15       A16       D9        A24       D10
   1                    0.17621   0.16460  -0.13154   0.12893  -0.12797
 RFO step:  Lambda0=3.874821396D-03 Lambda=-2.68945386D-03.
 Linear search not attempted -- option 19 set.
 Maximum step size (   0.300) exceeded in Quadratic search.
    -- Step size scaled by   0.440
 Iteration  1 RMS(Cart)=  0.04544827 RMS(Int)=  0.00229659
 Iteration  2 RMS(Cart)=  0.00163587 RMS(Int)=  0.00074759
 Iteration  3 RMS(Cart)=  0.00000402 RMS(Int)=  0.00074757
 Iteration  4 RMS(Cart)=  0.00000000 RMS(Int)=  0.00074757
 Variable       Old X    -DE/DX   Delta X   Delta X   Delta X     New X
                                 (Linear)    (Quad)   (Total)
    R1        2.74208   0.00289   0.00000   0.00414   0.00410   2.74619
    R2        2.66784   0.00770   0.00000   0.00763   0.00780   2.67565
    R3        2.08505  -0.00356   0.00000  -0.00408  -0.00408   2.08097
    R4        2.86893  -0.00161   0.00000  -0.00266  -0.00266   2.86627
    R5        3.24791  -0.00500   0.00000   0.07008   0.06997   3.31788
    R6        2.03523   0.00039   0.00000   0.00133   0.00119   2.03641
    R7        2.03381   0.00024   0.00000   0.00131   0.00133   2.03513
    R8        4.25988   0.00413   0.00000  -0.05813  -0.05781   4.20207
    R9        5.12002   0.00104   0.00000  -0.19557  -0.19671   4.92330
   R10        4.34320   0.00381   0.00000   0.07153   0.07175   4.41495
   R11        4.48906   0.00282   0.00000   0.03276   0.03327   4.52233
   R12        2.06999   0.00041   0.00000   0.00023   0.00023   2.07022
   R13        2.07260  -0.00082   0.00000  -0.00055  -0.00055   2.07205
   R14        2.07689  -0.00217   0.00000  -0.00246  -0.00246   2.07444
   R15        1.83186  -0.00136   0.00000  -0.00126  -0.00057   1.83128
    A1        2.02458  -0.00091   0.00000  -0.00815  -0.00819   2.01640
    A2        2.09374   0.00292   0.00000  -0.00239  -0.00244   2.09130
    A3        1.99428  -0.00014   0.00000  -0.00767  -0.00769   1.98659
    A4        2.03796   0.00278   0.00000  -0.00275  -0.00274   2.03522
    A5        1.94393  -0.00050   0.00000  -0.00077  -0.00085   1.94308
    A6        2.08867   0.00012   0.00000  -0.00378  -0.00374   2.08493
    A7        2.10677   0.00036   0.00000  -0.00572  -0.00584   2.10093
    A8        1.96844  -0.00127   0.00000  -0.03297  -0.03327   1.93517
    A9        1.70030  -0.00113   0.00000  -0.05186  -0.05129   1.64901
   A10        1.85477  -0.00009   0.00000  -0.02894  -0.02860   1.82617
   A11        1.85333  -0.00153   0.00000  -0.02754  -0.02742   1.82591
   A12        2.87462   0.00258   0.00000  -0.04437  -0.04505   2.82956
   A13        2.58239   0.00209   0.00000  -0.06904  -0.06859   2.51380
   A14        2.08448  -0.00033   0.00000   0.00289  -0.00045   2.08403
   A15        1.69815  -0.00016   0.00000   0.08752   0.08770   1.78585
   A16        1.38798  -0.00037   0.00000   0.04130   0.04084   1.42881
   A17        1.91894   0.00152   0.00000   0.00708   0.00706   1.92600
   A18        1.92648   0.00011   0.00000   0.00138   0.00136   1.92784
   A19        1.92973  -0.00007   0.00000  -0.00206  -0.00207   1.92766
   A20        1.89057  -0.00023   0.00000   0.00157   0.00154   1.89211
   A21        1.89077  -0.00024   0.00000   0.00171   0.00171   1.89248
   A22        1.90655  -0.00111   0.00000  -0.00969  -0.00971   1.89684
   A23        0.81768  -0.00059   0.00000  -0.00860  -0.00947   0.80820
   A24        2.31550  -0.00167   0.00000  -0.09182  -0.09208   2.22342
   A25        1.75777  -0.00107   0.00000  -0.08162  -0.08174   1.67604
    D1        2.83604   0.00019   0.00000   0.04079   0.04097   2.87701
    D2       -0.39271   0.00211   0.00000  -0.04734  -0.04734  -0.44005
    D3        1.27254   0.00084   0.00000  -0.01574  -0.01567   1.25687
    D4        1.04178   0.00104   0.00000  -0.02970  -0.02990   1.01188
    D5        0.41822  -0.00166   0.00000   0.05711   0.05725   0.47547
    D6       -2.81053   0.00026   0.00000  -0.03102  -0.03106  -2.84159
    D7       -1.14528  -0.00101   0.00000   0.00057   0.00062  -1.14466
    D8       -1.37604  -0.00082   0.00000  -0.01339  -0.01362  -1.38966
    D9       -0.68625   0.00180   0.00000  -0.01267  -0.01269  -0.69894
   D10        1.39842   0.00254   0.00000  -0.00540  -0.00541   1.39302
   D11       -2.77322   0.00117   0.00000  -0.01801  -0.01802  -2.79124
   D12        0.81409  -0.00184   0.00000   0.02102   0.02101   0.83511
   D13        2.89877  -0.00109   0.00000   0.02829   0.02829   2.92706
   D14       -1.27288  -0.00246   0.00000   0.01568   0.01568  -1.25719
   D15       -3.13442   0.00026   0.00000   0.00572   0.00573  -3.12869
   D16       -1.04975   0.00101   0.00000   0.01300   0.01301  -1.03674
   D17        1.06179  -0.00037   0.00000   0.00039   0.00040   1.06219
   D18        0.54987   0.00006   0.00000   0.01489   0.01402   0.56390
   D19       -0.47693   0.00056   0.00000   0.05197   0.04928  -0.42765
   D20        1.88347  -0.00086   0.00000  -0.05308  -0.04997   1.83349
         Item               Value     Threshold  Converged?
 Maximum Force            0.007702     0.000450     NO 
 RMS     Force            0.001970     0.000300     NO 
 Maximum Displacement     0.215916     0.001800     NO 
 RMS     Displacement     0.044985     0.001200     NO 
 Predicted change in Energy= 3.767267D-04
 GradGradGradGradGradGradGradGradGradGradGradGradGradGradGradGradGradGrad

                          Input orientation:                          
 ---------------------------------------------------------------------
 Center     Atomic      Atomic             Coordinates (Angstroms)
 Number     Number       Type             X           Y           Z
 ---------------------------------------------------------------------
      1          6           0       -0.016267    0.001250    0.021520
      2          6           0       -0.012964   -0.006206    1.474717
      3          8           0        1.354861    0.019790    0.374249
      4          1           0       -0.367521    0.933592   -0.447522
      5          1           0        0.077768   -0.942938    1.999667
      6          1           0        0.062439    0.917146    2.023851
      7          6           0       -0.505968   -1.216941   -0.737941
      8          1           0       -0.158700   -2.134654   -0.250744
      9          1           0       -1.601881   -1.234495   -0.768507
     10          1           0       -0.125646   -1.205357   -1.767632
     11          8           0       -2.086592   -0.106287    2.271345
     12          1           0       -2.558686    0.505607    1.686693
 ---------------------------------------------------------------------
                    Distance matrix (angstroms):
                    1          2          3          4          5
     1  C    0.000000
     2  C    1.453220   0.000000
     3  O    1.415893   1.755747   0.000000
     4  H    1.101200   2.168856   2.115878   0.000000
     5  H    2.193946   1.077623   2.280306   3.115828   0.000000
     6  H    2.203268   1.076947   2.279646   2.508550   1.860305
     7  C    1.516765   2.569978   2.495828   2.174466   2.812530
     8  H    2.157892   2.743856   2.706125   3.081633   2.557431
     9  H    2.159949   3.010881   3.409024   2.515408   3.251003
    10  H    2.160771   3.458827   2.877593   2.525133   3.781902
    11  O    3.059334   2.223638   3.931726   3.380650   2.336290
    12  H    3.080758   2.605300   4.156245   3.088568   3.024422
                    6          7          8          9         10
     6  H    0.000000
     7  C    3.536228   0.000000
     8  H    3.812633   1.095515   0.000000
     9  H    3.898306   1.096479   1.777959   0.000000
    10  H    4.349223   1.097744   1.779223   1.782798   0.000000
    11  O    2.393116   3.575993   3.767224   3.278491   4.622402
    12  H    2.674572   3.613817   4.060120   3.157759   4.558448
                   11         12
    11  O    0.000000
    12  H    0.969074   0.000000
 Stoichiometry    C3H7O2(1-)
 Framework group  C1[X(C3H7O2)]
 Deg. of freedom    30
 Full point group                 C1      NOp   1
 Largest Abelian subgroup         C1      NOp   1
 Largest concise Abelian subgroup C1      NOp   1
                         Standard orientation:                         
 ---------------------------------------------------------------------
 Center     Atomic      Atomic             Coordinates (Angstroms)
 Number     Number       Type             X           Y           Z
 ---------------------------------------------------------------------
      1          6           0        0.656446    0.020976    0.434723
      2          6           0       -0.378264   -0.783692   -0.192756
      3          8           0        1.342486   -1.110150   -0.069911
      4          1           0        0.621277    0.065786    1.534449
      5          1           0       -0.561134   -0.681347   -1.249807
      6          1           0       -0.846788   -1.587570    0.349536
      7          6           0        1.031879    1.364618   -0.160467
      8          1           0        1.049319    1.305328   -1.254238
      9          1           0        0.304375    2.130606    0.133246
     10          1           0        2.026669    1.673157    0.186291
     11          8           0       -2.355880    0.224183   -0.059364
     12          1           0       -2.346939    0.570364    0.845723
 ---------------------------------------------------------------------
 Rotational constants (GHZ):      7.0468770      3.1674361      2.3822920
 Standard basis: 6-31++G(d,p) (6D, 7F)
 There are   137 symmetry adapted basis functions of A   symmetry.
 Integral buffers will be    131072 words long.
 Raffenetti 2 integral format.
 Two-electron integral symmetry is turned on.
   137 basis functions,   216 primitive gaussians,   137 cartesian basis functions
    21 alpha electrons       21 beta electrons
       nuclear repulsion energy       174.6351908067 Hartrees.
 NAtoms=   12 NActive=   12 NUniq=   12 SFac= 1.00D+00 NAtFMM=   50 NAOKFM=F Big=F
 ------------------------------------------------------------------------------
 Polarizable Continuum Model (PCM)
 =================================
 Model                : PCM.
 Atomic radii         : SMD-Coulomb.
 Polarization charges : Total charges.
 Charge compensation  : None.
 Solution method      : Matrix inversion.
 Cavity type          : VdW (van der Waals Surface) (Alpha=1.000).
 Cavity algorithm     : GePol (No added spheres)
                        Default sphere list used, NSphG=   12.
                        Lebedev-Laikov grids with approx.  5.0 points / Ang**2.
                        Smoothing algorithm: Karplus/York (Gamma=1.0000).
                        Polarization charges: spherical gaussians, with
                                              point-specific exponents (IZeta= 3).
                        Self-potential: point-specific (ISelfS= 7).
                        Self-field    : sphere-specific E.n sum rule (ISelfD= 2).
 1st derivatives      : Analytical E(r).r(x)/FMM algorithm (CHGder, D1EAlg=3).
                        Cavity 1st derivative terms included.
 Solvent              : Water, Eps=  78.355300 Eps(inf)=   1.777849
 ------------------------------------------------------------------------------
 Spheres list:
 ISph  on   Nord    Re0     Alpha      Xe            Ye            Ze
    1   C      1    1.850   1.000      0.656446      0.020976      0.434723
    2   C      2    1.850   1.000     -0.378264     -0.783692     -0.192756
    3   O      3    1.520   1.000      1.342486     -1.110150     -0.069911
    4   H      4    1.200   1.000      0.621277      0.065786      1.534449
    5   H      5    1.200   1.000     -0.561134     -0.681347     -1.249807
    6   H      6    1.200   1.000     -0.846788     -1.587570      0.349536
    7   C      7    1.850   1.000      1.031879      1.364618     -0.160467
    8   H      8    1.200   1.000      1.049319      1.305328     -1.254238
    9   H      9    1.200   1.000      0.304375      2.130606      0.133246
   10   H     10    1.200   1.000      2.026669      1.673157      0.186291
   11   O     11    1.520   1.000     -2.355880      0.224183     -0.059364
   12   H     12    1.200   1.000     -2.346939      0.570364      0.845723
 ------------------------------------------------------------------------------
 ------------------------------------------------------------------------------
 Atomic radii for non-electrostatic terms: SMD-CDS.
 ------------------------------------------------------------------------------
 Nuclear repulsion after PCM non-electrostatic terms =      174.6392369174 Hartrees.
 One-electron integrals computed using PRISM.
 PrsmSu:  requested number of processors reduced to:  10 ShMem   1 Linda.
 NBasis=   137 RedAO= T  NBF=   137
 NBsUse=   137 1.00D-06 NBFU=   137
 Initial guess read from the read-write file.
 B after Tr=     0.000000    0.000000    0.000000
         Rot=    1.000000    0.000000    0.000000    0.000000 Ang=   0.00 deg.
 Initial guess orbital symmetries:
       Occupied  (A) (A) (A) (A) (A) (A) (A) (A) (A) (A) (A) (A)
                 (A) (A) (A) (A) (A) (A) (A) (A) (A)
       Virtual   (A) (A) (A) (A) (A) (A) (A) (A) (A) (A) (A) (A)
                 (A) (A) (A) (A) (A) (A) (A) (A) (A) (A) (A) (A)
                 (A) (A) (A) (A) (A) (A) (A) (A) (A) (A) (A) (A)
                 (A) (A) (A) (A) (A) (A) (A) (A) (A) (A) (A) (A)
                 (A) (A) (A) (A) (A) (A) (A) (A) (A) (A) (A) (A)
                 (A) (A) (A) (A) (A) (A) (A) (A) (A) (A) (A) (A)
                 (A) (A) (A) (A) (A) (A) (A) (A) (A) (A) (A) (A)
                 (A) (A) (A) (A) (A) (A) (A) (A) (A) (A) (A) (A)
                 (A) (A) (A) (A) (A) (A) (A) (A) (A) (A) (A) (A)
                 (A) (A) (A) (A) (A) (A) (A) (A)
 Harris functional with IExCor=  402 diagonalized for initial guess.
 ExpMin= 3.60D-02 ExpMax= 5.48D+03 ExpMxC= 8.25D+02 IAcc=3 IRadAn=         0 AccDes= 0.00D+00
 HarFok:  IExCor=  402 AccDes= 0.00D+00 IRadAn=         0 IDoV= 1
 ScaDFX=  1.000000  1.000000  1.000000  1.000000
 FoFCou: FMM=F IPFlag=           0 FMFlag=      100000 FMFlg1=           0
         NFxFlg=           0 DoJE=T BraDBF=F KetDBF=T FulRan=T
         Omega=  0.000000  0.000000  1.000000  0.000000  0.000000 ICntrl=     500 IOpCl=  0
         NMat0=    1 NMatS0=    1 NMatT0=    0 NMatD0=    1 NMtDS0=    0 NMtDT0=    0
         I1Cent=           4 NGrid=           0.
 Petite list used in FoFCou.
 Requested convergence on RMS density matrix=1.00D-08 within 128 cycles.
 Requested convergence on MAX density matrix=1.00D-06.
 Requested convergence on             energy=1.00D-06.
 No special actions if energy rises.
 CoulSu:  requested number of processors reduced to:  15 ShMem   1 Linda.
 CoulSu:  requested number of processors reduced to:  15 ShMem   1 Linda.
 CoulSu:  requested number of processors reduced to:  15 ShMem   1 Linda.
 CoulSu:  requested number of processors reduced to:  15 ShMem   1 Linda.
 CoulSu:  requested number of processors reduced to:  15 ShMem   1 Linda.
 CoulSu:  requested number of processors reduced to:  15 ShMem   1 Linda.
 CoulSu:  requested number of processors reduced to:  15 ShMem   1 Linda.
 CoulSu:  requested number of processors reduced to:  15 ShMem   1 Linda.
 CoulSu:  requested number of processors reduced to:  15 ShMem   1 Linda.
 CoulSu:  requested number of processors reduced to:  15 ShMem   1 Linda.
 CoulSu:  requested number of processors reduced to:  15 ShMem   1 Linda.
 CoulSu:  requested number of processors reduced to:  15 ShMem   1 Linda.
 CoulSu:  requested number of processors reduced to:  15 ShMem   1 Linda.
 CoulSu:  requested number of processors reduced to:  15 ShMem   1 Linda.
 Error on total polarization charges =  0.07605
 SCF Done:  E(RB3LYP) =  -269.062720389     A.U. after   11 cycles
             Convg  =    0.4667D-08             -V/T =  2.0097
 SMD-CDS (non-electrostatic) energy       (kcal/mol) =       2.54
 (included in total energy above)
 PrsmSu:  requested number of processors reduced to:  10 ShMem   1 Linda.
 PrsmSu:  requested number of processors reduced to:  23 ShMem   1 Linda.
 D1PCM: PCM CHGder 1st derivatives, ID1Alg=3 FixD1E=F DoIter=F DoCFld=F I1PDM=0.
 CoulSu:  requested number of processors reduced to:  22 ShMem   1 Linda.
 CoulSu:  requested number of processors reduced to:  22 ShMem   1 Linda.
 CoulSu:  requested number of processors reduced to:  15 ShMem   1 Linda.
 CoulSu:  requested number of processors reduced to:  10 ShMem   1 Linda.
 CoulSu:  requested number of processors reduced to:  10 ShMem   1 Linda.
 CoulSu:  requested number of processors reduced to:  23 ShMem   1 Linda.
 CoulSu:  requested number of processors reduced to:  23 ShMem   1 Linda.
 Calling FoFJK, ICntrl=      2127 FMM=F ISym2X=0 I1Cent= 0 IOpClX= 0 NMat=1 NMatS=1 NMatT=0.
 CoulSu:  requested number of processors reduced to:  16 ShMem   1 Linda.
 ***** Axes restored to original set *****
 -------------------------------------------------------------------
 Center     Atomic                   Forces (Hartrees/Bohr)
 Number     Number              X              Y              Z
 -------------------------------------------------------------------
      1        6          -0.010124194    0.000920114   -0.006299028
      2        6           0.008986532    0.000186810   -0.003064396
      3        8           0.002189903    0.000092153    0.005051097
      4        1           0.001665484   -0.001188918    0.001144627
      5        1           0.001800909   -0.000852196   -0.000060612
      6        1           0.000855768    0.001014248   -0.000084100
      7        6           0.002264236    0.000077071    0.001073627
      8        1          -0.000217764   -0.000465102   -0.000153260
      9        1           0.000528892    0.000355626   -0.000925033
     10        1          -0.001004032    0.000115293    0.000916653
     11        8          -0.007797194    0.000132100    0.001992361
     12        1           0.000851460   -0.000387199    0.000408065
 -------------------------------------------------------------------
 Cartesian Forces:  Max     0.010124194 RMS     0.003119313

 GradGradGradGradGradGradGradGradGradGradGradGradGradGradGradGradGradGrad
 Berny optimization.
 Internal  Forces:  Max     0.004287278 RMS     0.001174607
 Search for a saddle point.
 Step number   2 out of a maximum of   70
 All quantities printed in internal units (Hartrees-Bohrs-Radians)
 Swaping is turned off.
 Update second derivatives using D2CorX and points    1    2
 ITU=  0  0
     Eigenvalues ---   -0.01836   0.00024   0.00227   0.00326   0.00803
     Eigenvalues ---    0.01165   0.01558   0.01791   0.02843   0.04314
     Eigenvalues ---    0.04424   0.05439   0.06064   0.08200   0.09228
     Eigenvalues ---    0.12111   0.12510   0.13248   0.15591   0.21946
     Eigenvalues ---    0.28806   0.31366   0.33076   0.33406   0.33587
     Eigenvalues ---    0.34155   0.35585   0.35804   0.40816   0.42605
 Eigenvectors required to have negative eigenvalues:
                          R5        R8        R9        D2        D5
   1                    0.48425  -0.48228  -0.31096  -0.26444   0.26418
                          A15       A16       D9        D10       D11
   1                    0.18014   0.15931  -0.12983  -0.12614  -0.12284
 RFO step:  Lambda0=1.669639122D-03 Lambda=-1.06169910D-03.
 Linear search not attempted -- option 19 set.
 Maximum step size (   0.300) exceeded in Quadratic search.
    -- Step size scaled by   0.692
 Iteration  1 RMS(Cart)=  0.03442124 RMS(Int)=  0.00288952
 Iteration  2 RMS(Cart)=  0.00190955 RMS(Int)=  0.00109194
 Iteration  3 RMS(Cart)=  0.00000802 RMS(Int)=  0.00109189
 Iteration  4 RMS(Cart)=  0.00000001 RMS(Int)=  0.00109189
 Variable       Old X    -DE/DX   Delta X   Delta X   Delta X     New X
                                 (Linear)    (Quad)   (Total)
    R1        2.74619   0.00183   0.00000   0.00666   0.00656   2.75275
    R2        2.67565   0.00429   0.00000   0.00596   0.00630   2.68195
    R3        2.08097  -0.00203   0.00000  -0.00352  -0.00352   2.07744
    R4        2.86627  -0.00102   0.00000  -0.00245  -0.00245   2.86383
    R5        3.31788  -0.00288   0.00000   0.08610   0.08590   3.40378
    R6        2.03641   0.00037   0.00000   0.00205   0.00258   2.03899
    R7        2.03513   0.00024   0.00000   0.00095   0.00083   2.03597
    R8        4.20207   0.00281   0.00000  -0.05675  -0.05744   4.14463
    R9        4.92330   0.00061   0.00000  -0.19918  -0.19972   4.72359
   R10        4.41495   0.00242   0.00000   0.06670   0.06671   4.48166
   R11        4.52233   0.00172   0.00000   0.02011   0.02088   4.54322
   R12        2.07022   0.00023   0.00000   0.00018   0.00018   2.07041
   R13        2.07205  -0.00048   0.00000  -0.00044  -0.00044   2.07160
   R14        2.07444  -0.00121   0.00000  -0.00206  -0.00206   2.07238
   R15        1.83128  -0.00101   0.00000  -0.00097  -0.00042   1.83087
    A1        2.01640  -0.00043   0.00000  -0.00814  -0.00820   2.00820
    A2        2.09130   0.00157   0.00000  -0.00498  -0.00503   2.08627
    A3        1.98659  -0.00007   0.00000  -0.00843  -0.00850   1.97809
    A4        2.03522   0.00153   0.00000  -0.00647  -0.00643   2.02879
    A5        1.94308  -0.00018   0.00000  -0.00016  -0.00027   1.94280
    A6        2.08493   0.00009   0.00000  -0.00626  -0.00635   2.07858
    A7        2.10093   0.00022   0.00000  -0.00725  -0.00790   2.09304
    A8        1.93517  -0.00048   0.00000  -0.00728  -0.00864   1.92653
    A9        1.64901  -0.00033   0.00000  -0.00549  -0.00354   1.64547
   A10        1.82617  -0.00007   0.00000  -0.03393  -0.03363   1.79254
   A11        1.82591  -0.00082   0.00000  -0.03174  -0.03179   1.79411
   A12        2.82956   0.00166   0.00000  -0.02400  -0.02553   2.80403
   A13        2.51380   0.00145   0.00000  -0.03662  -0.03586   2.47794
   A14        2.08403  -0.00014   0.00000  -0.00262  -0.00689   2.07714
   A15        1.78585  -0.00028   0.00000   0.09515   0.09462   1.88047
   A16        1.42881  -0.00041   0.00000   0.00179   0.00033   1.42914
   A17        1.92600   0.00089   0.00000   0.00631   0.00630   1.93230
   A18        1.92784  -0.00004   0.00000   0.00205   0.00204   1.92988
   A19        1.92766   0.00002   0.00000  -0.00313  -0.00314   1.92452
   A20        1.89211  -0.00011   0.00000   0.00199   0.00197   1.89408
   A21        1.89248  -0.00016   0.00000   0.00103   0.00104   1.89352
   A22        1.89684  -0.00063   0.00000  -0.00840  -0.00841   1.88843
   A23        0.80820  -0.00030   0.00000  -0.00804  -0.00907   0.79913
   A24        2.22342  -0.00111   0.00000  -0.07677  -0.07922   2.14420
   A25        1.67604  -0.00081   0.00000  -0.12103  -0.12033   1.55571
    D1        2.87701   0.00016   0.00000   0.04776   0.04810   2.92511
    D2       -0.44005   0.00132   0.00000  -0.05801  -0.05795  -0.49800
    D3        1.25687   0.00053   0.00000  -0.01939  -0.01926   1.23761
    D4        1.01188   0.00066   0.00000  -0.05918  -0.05967   0.95221
    D5        0.47547  -0.00103   0.00000   0.06588   0.06618   0.54165
    D6       -2.84159   0.00013   0.00000  -0.03990  -0.03988  -2.88146
    D7       -1.14466  -0.00066   0.00000  -0.00127  -0.00119  -1.14585
    D8       -1.38966  -0.00053   0.00000  -0.04107  -0.04159  -1.43125
    D9       -0.69894   0.00118   0.00000   0.00166   0.00165  -0.69729
   D10        1.39302   0.00159   0.00000   0.00951   0.00952   1.40254
   D11       -2.79124   0.00079   0.00000  -0.00168  -0.00168  -2.79292
   D12        0.83511  -0.00106   0.00000   0.04133   0.04130   0.87641
   D13        2.92706  -0.00064   0.00000   0.04919   0.04917   2.97624
   D14       -1.25719  -0.00144   0.00000   0.03799   0.03798  -1.21922
   D15       -3.12869   0.00018   0.00000   0.02207   0.02208  -3.10661
   D16       -1.03674   0.00059   0.00000   0.02993   0.02995  -1.00678
   D17        1.06219  -0.00021   0.00000   0.01874   0.01876   1.08095
   D18        0.56390   0.00000   0.00000   0.01196   0.01211   0.57601
   D19       -0.42765   0.00031   0.00000   0.14866   0.14484  -0.28281
   D20        1.83349  -0.00045   0.00000   0.02997   0.03407   1.86756
         Item               Value     Threshold  Converged?
 Maximum Force            0.004287     0.000450     NO 
 RMS     Force            0.001175     0.000300     NO 
 Maximum Displacement     0.162854     0.001800     NO 
 RMS     Displacement     0.034343     0.001200     NO 
 Predicted change in Energy= 2.566767D-04
 GradGradGradGradGradGradGradGradGradGradGradGradGradGradGradGradGradGrad

                          Input orientation:                          
 ---------------------------------------------------------------------
 Center     Atomic      Atomic             Coordinates (Angstroms)
 Number     Number       Type             X           Y           Z
 ---------------------------------------------------------------------
      1          6           0       -0.033977   -0.000336    0.033147
      2          6           0       -0.045522   -0.015498    1.489715
      3          8           0        1.348559    0.043936    0.350705
      4          1           0       -0.405276    0.927024   -0.425851
      5          1           0        0.109467   -0.950239    2.005905
      6          1           0        0.054495    0.906783    2.037581
      7          6           0       -0.507354   -1.220800   -0.730421
      8          1           0       -0.161551   -2.139967   -0.244708
      9          1           0       -1.602252   -1.243650   -0.779699
     10          1           0       -0.118672   -1.201798   -1.755710
     11          8           0       -2.104566   -0.131997    2.236097
     12          1           0       -2.472507    0.557048    1.662938
 ---------------------------------------------------------------------
                    Distance matrix (angstroms):
                    1          2          3          4          5
     1  C    0.000000
     2  C    1.456693   0.000000
     3  O    1.419227   1.801204   0.000000
     4  H    1.099336   2.164986   2.111592   0.000000
     5  H    2.194235   1.078987   2.294214   3.114886   0.000000
     6  H    2.201919   1.077387   2.294484   2.506051   1.858106
     7  C    1.515472   2.568082   2.492549   2.171712   2.818005
     8  H    2.161365   2.745005   2.721099   3.081988   2.560109
     9  H    2.160101   3.013637   3.412180   2.503954   3.282630
    10  H    2.156546   3.456218   2.853350   2.526371   3.776914
    11  O    3.026163   2.193244   3.938238   3.330927   2.371592
    12  H    2.985520   2.499614   4.072564   2.961986   3.009341
                    6          7          8          9         10
     6  H    0.000000
     7  C    3.536116   0.000000
     8  H    3.812899   1.095612   0.000000
     9  H    3.912319   1.096245   1.779106   0.000000
    10  H    4.343404   1.096655   1.779081   1.776332   0.000000
    11  O    2.404166   3.540735   3.736527   3.253170   4.585059
    12  H    2.578451   3.570818   4.031565   3.156951   4.507908
                   11         12
    11  O    0.000000
    12  H    0.968852   0.000000
 Stoichiometry    C3H7O2(1-)
 Framework group  C1[X(C3H7O2)]
 Deg. of freedom    30
 Full point group                 C1      NOp   1
 Largest Abelian subgroup         C1      NOp   1
 Largest concise Abelian subgroup C1      NOp   1
                         Standard orientation:                         
 ---------------------------------------------------------------------
 Center     Atomic      Atomic             Coordinates (Angstroms)
 Number     Number       Type             X           Y           Z
 ---------------------------------------------------------------------
      1          6           0        0.640151    0.019271    0.427620
      2          6           0       -0.398189   -0.779629   -0.209220
      3          8           0        1.368173   -1.098073   -0.057903
      4          1           0        0.587913    0.061562    1.524899
      5          1           0       -0.535543   -0.706610   -1.276935
      6          1           0       -0.836484   -1.610472    0.318379
      7          6           0        1.010983    1.366697   -0.158540
      8          1           0        1.025543    1.322331   -1.253156
      9          1           0        0.289534    2.132491    0.149395
     10          1           0        2.004720    1.672261    0.190413
     11          8           0       -2.340065    0.228079   -0.054435
     12          1           0       -2.278219    0.450352    0.886546
 ---------------------------------------------------------------------
 Rotational constants (GHZ):      7.0799244      3.1897577      2.4000124
 Standard basis: 6-31++G(d,p) (6D, 7F)
 There are   137 symmetry adapted basis functions of A   symmetry.
 Integral buffers will be    131072 words long.
 Raffenetti 2 integral format.
 Two-electron integral symmetry is turned on.
   137 basis functions,   216 primitive gaussians,   137 cartesian basis functions
    21 alpha electrons       21 beta electrons
       nuclear repulsion energy       174.6669436128 Hartrees.
 NAtoms=   12 NActive=   12 NUniq=   12 SFac= 1.00D+00 NAtFMM=   50 NAOKFM=F Big=F
 ------------------------------------------------------------------------------
 Polarizable Continuum Model (PCM)
 =================================
 Model                : PCM.
 Atomic radii         : SMD-Coulomb.
 Polarization charges : Total charges.
 Charge compensation  : None.
 Solution method      : Matrix inversion.
 Cavity type          : VdW (van der Waals Surface) (Alpha=1.000).
 Cavity algorithm     : GePol (No added spheres)
                        Default sphere list used, NSphG=   12.
                        Lebedev-Laikov grids with approx.  5.0 points / Ang**2.
                        Smoothing algorithm: Karplus/York (Gamma=1.0000).
                        Polarization charges: spherical gaussians, with
                                              point-specific exponents (IZeta= 3).
                        Self-potential: point-specific (ISelfS= 7).
                        Self-field    : sphere-specific E.n sum rule (ISelfD= 2).
 1st derivatives      : Analytical E(r).r(x)/FMM algorithm (CHGder, D1EAlg=3).
                        Cavity 1st derivative terms included.
 Solvent              : Water, Eps=  78.355300 Eps(inf)=   1.777849
 ------------------------------------------------------------------------------
 Spheres list:
 ISph  on   Nord    Re0     Alpha      Xe            Ye            Ze
    1   C      1    1.850   1.000      0.640151      0.019271      0.427620
    2   C      2    1.850   1.000     -0.398189     -0.779629     -0.209220
    3   O      3    1.520   1.000      1.368173     -1.098073     -0.057903
    4   H      4    1.200   1.000      0.587913      0.061562      1.524899
    5   H      5    1.200   1.000     -0.535543     -0.706610     -1.276935
    6   H      6    1.200   1.000     -0.836484     -1.610472      0.318379
    7   C      7    1.850   1.000      1.010983      1.366697     -0.158540
    8   H      8    1.200   1.000      1.025543      1.322331     -1.253156
    9   H      9    1.200   1.000      0.289534      2.132491      0.149395
   10   H     10    1.200   1.000      2.004720      1.672261      0.190413
   11   O     11    1.520   1.000     -2.340065      0.228079     -0.054435
   12   H     12    1.200   1.000     -2.278219      0.450352      0.886546
 ------------------------------------------------------------------------------
 ------------------------------------------------------------------------------
 Atomic radii for non-electrostatic terms: SMD-CDS.
 ------------------------------------------------------------------------------
 Nuclear repulsion after PCM non-electrostatic terms =      174.6708571329 Hartrees.
 One-electron integrals computed using PRISM.
 PrsmSu:  requested number of processors reduced to:  10 ShMem   1 Linda.
 NBasis=   137 RedAO= T  NBF=   137
 NBsUse=   137 1.00D-06 NBFU=   137
 Initial guess read from the read-write file.
 B after Tr=     0.000000    0.000000    0.000000
         Rot=    1.000000    0.000000    0.000000    0.000000 Ang=   0.00 deg.
 Initial guess orbital symmetries:
       Occupied  (A) (A) (A) (A) (A) (A) (A) (A) (A) (A) (A) (A)
                 (A) (A) (A) (A) (A) (A) (A) (A) (A)
       Virtual   (A) (A) (A) (A) (A) (A) (A) (A) (A) (A) (A) (A)
                 (A) (A) (A) (A) (A) (A) (A) (A) (A) (A) (A) (A)
                 (A) (A) (A) (A) (A) (A) (A) (A) (A) (A) (A) (A)
                 (A) (A) (A) (A) (A) (A) (A) (A) (A) (A) (A) (A)
                 (A) (A) (A) (A) (A) (A) (A) (A) (A) (A) (A) (A)
                 (A) (A) (A) (A) (A) (A) (A) (A) (A) (A) (A) (A)
                 (A) (A) (A) (A) (A) (A) (A) (A) (A) (A) (A) (A)
                 (A) (A) (A) (A) (A) (A) (A) (A) (A) (A) (A) (A)
                 (A) (A) (A) (A) (A) (A) (A) (A) (A) (A) (A) (A)
                 (A) (A) (A) (A) (A) (A) (A) (A)
 Harris functional with IExCor=  402 diagonalized for initial guess.
 ExpMin= 3.60D-02 ExpMax= 5.48D+03 ExpMxC= 8.25D+02 IAcc=3 IRadAn=         0 AccDes= 0.00D+00
 HarFok:  IExCor=  402 AccDes= 0.00D+00 IRadAn=         0 IDoV= 1
 ScaDFX=  1.000000  1.000000  1.000000  1.000000
 FoFCou: FMM=F IPFlag=           0 FMFlag=      100000 FMFlg1=           0
         NFxFlg=           0 DoJE=T BraDBF=F KetDBF=T FulRan=T
         Omega=  0.000000  0.000000  1.000000  0.000000  0.000000 ICntrl=     500 IOpCl=  0
         NMat0=    1 NMatS0=    1 NMatT0=    0 NMatD0=    1 NMtDS0=    0 NMtDT0=    0
         I1Cent=           4 NGrid=           0.
 Petite list used in FoFCou.
 Requested convergence on RMS density matrix=1.00D-08 within 128 cycles.
 Requested convergence on MAX density matrix=1.00D-06.
 Requested convergence on             energy=1.00D-06.
 No special actions if energy rises.
 CoulSu:  requested number of processors reduced to:  15 ShMem   1 Linda.
 CoulSu:  requested number of processors reduced to:  15 ShMem   1 Linda.
 CoulSu:  requested number of processors reduced to:  15 ShMem   1 Linda.
 CoulSu:  requested number of processors reduced to:  15 ShMem   1 Linda.
 CoulSu:  requested number of processors reduced to:  15 ShMem   1 Linda.
 CoulSu:  requested number of processors reduced to:  15 ShMem   1 Linda.
 CoulSu:  requested number of processors reduced to:  15 ShMem   1 Linda.
 CoulSu:  requested number of processors reduced to:  15 ShMem   1 Linda.
 CoulSu:  requested number of processors reduced to:  15 ShMem   1 Linda.
 CoulSu:  requested number of processors reduced to:  15 ShMem   1 Linda.
 CoulSu:  requested number of processors reduced to:  15 ShMem   1 Linda.
 CoulSu:  requested number of processors reduced to:  15 ShMem   1 Linda.
 CoulSu:  requested number of processors reduced to:  15 ShMem   1 Linda.
 CoulSu:  requested number of processors reduced to:  15 ShMem   1 Linda.
 Error on total polarization charges =  0.07581
 SCF Done:  E(RB3LYP) =  -269.062408239     A.U. after   11 cycles
             Convg  =    0.6796D-08             -V/T =  2.0098
 SMD-CDS (non-electrostatic) energy       (kcal/mol) =       2.46
 (included in total energy above)
 PrsmSu:  requested number of processors reduced to:  10 ShMem   1 Linda.
 PrsmSu:  requested number of processors reduced to:  23 ShMem   1 Linda.
 D1PCM: PCM CHGder 1st derivatives, ID1Alg=3 FixD1E=F DoIter=F DoCFld=F I1PDM=0.
 CoulSu:  requested number of processors reduced to:  22 ShMem   1 Linda.
 CoulSu:  requested number of processors reduced to:  22 ShMem   1 Linda.
 CoulSu:  requested number of processors reduced to:  15 ShMem   1 Linda.
 CoulSu:  requested number of processors reduced to:  10 ShMem   1 Linda.
 CoulSu:  requested number of processors reduced to:  10 ShMem   1 Linda.
 CoulSu:  requested number of processors reduced to:  23 ShMem   1 Linda.
 CoulSu:  requested number of processors reduced to:  23 ShMem   1 Linda.
 Calling FoFJK, ICntrl=      2127 FMM=F ISym2X=0 I1Cent= 0 IOpClX= 0 NMat=1 NMatS=1 NMatT=0.
 CoulSu:  requested number of processors reduced to:  16 ShMem   1 Linda.
 ***** Axes restored to original set *****
 -------------------------------------------------------------------
 Center     Atomic                   Forces (Hartrees/Bohr)
 Number     Number              X              Y              Z
 -------------------------------------------------------------------
      1        6          -0.003584323    0.000430710   -0.002388535
      2        6           0.002830852   -0.000484850   -0.000140335
[...]
   R14        2.07144   0.00000   0.00000   0.00000   0.00000   2.07143
   R15        1.82930   0.00000   0.00000   0.00000   0.00000   1.82931
    A1        2.00430   0.00000   0.00000  -0.00001  -0.00001   2.00429
    A2        2.08598   0.00001   0.00000   0.00004   0.00004   2.08601
    A3        1.97380   0.00000   0.00000  -0.00004  -0.00004   1.97376
    A4        2.02378   0.00000   0.00000  -0.00001  -0.00001   2.02377
    A5        1.94608   0.00000   0.00000   0.00000   0.00000   1.94608
    A6        2.07397   0.00000   0.00000   0.00003   0.00003   2.07401
    A7        2.08713   0.00000   0.00000  -0.00002  -0.00002   2.08711
    A8        1.92659   0.00000   0.00000   0.00000   0.00000   1.92659
    A9        1.73028  -0.00001   0.00000   0.00013   0.00013   1.73041
   A10        1.77876   0.00000   0.00000  -0.00003  -0.00003   1.77873
   A11        1.78443  -0.00001   0.00000  -0.00005  -0.00005   1.78438
   A12        2.79929   0.00001   0.00000   0.00003   0.00003   2.79933
   A13        2.52701   0.00001   0.00000   0.00014   0.00014   2.52716
   A14        2.07919   0.00000   0.00000  -0.00003  -0.00003   2.07916
   A15        1.90581   0.00000   0.00000  -0.00003  -0.00003   1.90578
   A16        1.34104   0.00000   0.00000  -0.00006  -0.00006   1.34098
   A17        1.93586   0.00000   0.00000   0.00002   0.00002   1.93588
   A18        1.93159   0.00000   0.00000  -0.00002  -0.00002   1.93157
   A19        1.92210   0.00000   0.00000   0.00001   0.00001   1.92211
   A20        1.89476   0.00000   0.00000  -0.00001  -0.00001   1.89475
   A21        1.89419   0.00000   0.00000   0.00001   0.00001   1.89420
   A22        1.88405   0.00000   0.00000  -0.00001  -0.00001   1.88404
   A23        0.80040   0.00000   0.00000   0.00001   0.00001   0.80041
   A24        2.17871   0.00000   0.00000   0.00004   0.00004   2.17874
   A25        1.45747   0.00000   0.00000  -0.00014  -0.00014   1.45733
    D1        2.94435   0.00000   0.00000   0.00009   0.00009   2.94444
    D2       -0.51019   0.00000   0.00000   0.00002   0.00002  -0.51018
    D3        1.23940   0.00000   0.00000   0.00011   0.00011   1.23951
    D4        0.88579   0.00000   0.00000   0.00001   0.00001   0.88580
    D5        0.56078   0.00000   0.00000   0.00005   0.00005   0.56082
    D6       -2.89377   0.00000   0.00000  -0.00003  -0.00003  -2.89380
    D7       -1.14418   0.00000   0.00000   0.00007   0.00007  -1.14411
    D8       -1.49779   0.00000   0.00000  -0.00003  -0.00003  -1.49782
    D9       -0.68233   0.00000   0.00000  -0.00002  -0.00002  -0.68236
   D10        1.42184   0.00000   0.00000  -0.00004  -0.00004   1.42180
   D11       -2.77952   0.00000   0.00000  -0.00006  -0.00006  -2.77958
   D12        0.90188   0.00000   0.00000   0.00000   0.00000   0.90188
   D13        3.00605   0.00000   0.00000  -0.00002  -0.00002   3.00604
   D14       -1.19530   0.00000   0.00000  -0.00004  -0.00004  -1.19534
   D15       -3.08896   0.00000   0.00000  -0.00006  -0.00006  -3.08903
   D16       -0.98479   0.00000   0.00000  -0.00008  -0.00008  -0.98487
   D17        1.09704   0.00000   0.00000  -0.00010  -0.00010   1.09694
   D18        0.57680   0.00000   0.00000   0.00001   0.00001   0.57681
   D19        0.05558   0.00000   0.00000   0.00055   0.00055   0.05613
   D20        2.13295   0.00000   0.00000   0.00039   0.00039   2.13335
         Item               Value     Threshold  Converged?
 Maximum Force            0.000040     0.000450     YES
 RMS     Force            0.000006     0.000300     YES
 Maximum Displacement     0.000405     0.001800     YES
 RMS     Displacement     0.000080     0.001200     YES
 Predicted change in Energy=-4.557110D-09
 Optimization completed.
    -- Stationary point found.
                           ----------------------------
                           !   Optimized Parameters   !
                           ! (Angstroms and Degrees)  !
 --------------------------                            --------------------------
 ! Name  Definition              Value          Derivative Info.                !
 --------------------------------------------------------------------------------
 ! R1    R(1,2)                  1.4588         -DE/DX =    0.0                 !
 ! R2    R(1,3)                  1.4224         -DE/DX =    0.0                 !
 ! R3    R(1,4)                  1.0982         -DE/DX =    0.0                 !
 ! R4    R(1,7)                  1.5151         -DE/DX =    0.0                 !
 ! R5    R(2,3)                  1.8166         -DE/DX =    0.0                 !
 ! R6    R(2,5)                  1.0796         -DE/DX =    0.0                 !
 ! R7    R(2,6)                  1.079          -DE/DX =    0.0                 !
 ! R8    R(2,11)                 2.177          -DE/DX =    0.0                 !
 ! R9    R(2,12)                 2.5004         -DE/DX =    0.0                 !
 ! R10   R(5,11)                 2.3731         -DE/DX =    0.0                 !
 ! R11   R(6,11)                 2.4034         -DE/DX =    0.0                 !
 ! R12   R(7,8)                  1.0957         -DE/DX =    0.0                 !
 ! R13   R(7,9)                  1.0962         -DE/DX =    0.0                 !
 ! R14   R(7,10)                 1.0962         -DE/DX =    0.0                 !
 ! R15   R(11,12)                0.968          -DE/DX =    0.0                 !
 ! A1    A(2,1,4)              114.8377         -DE/DX =    0.0                 !
 ! A2    A(2,1,7)              119.5177         -DE/DX =    0.0                 !
 ! A3    A(3,1,4)              113.0902         -DE/DX =    0.0                 !
 ! A4    A(3,1,7)              115.9539         -DE/DX =    0.0                 !
 ! A5    A(4,1,7)              111.5019         -DE/DX =    0.0                 !
 ! A6    A(1,2,5)              118.83           -DE/DX =    0.0                 !
 ! A7    A(1,2,6)              119.584          -DE/DX =    0.0                 !
 ! A8    A(1,2,11)             110.3857         -DE/DX =    0.0                 !
 ! A9    A(1,2,12)              99.1378         -DE/DX =    0.0                 !
 ! A10   A(3,2,5)              101.9154         -DE/DX =    0.0                 !
 ! A11   A(3,2,6)              102.24           -DE/DX =    0.0                 !
 ! A12   A(3,2,11)             160.3876         -DE/DX =    0.0                 !
 ! A13   A(3,2,12)             144.7873         -DE/DX =    0.0                 !
 ! A14   A(5,2,6)              119.1288         -DE/DX =    0.0                 !
 ! A15   A(5,2,12)             109.1948         -DE/DX =    0.0                 !
 ! A16   A(6,2,12)              76.8359         -DE/DX =    0.0                 !
 ! A17   A(1,7,8)              110.9167         -DE/DX =    0.0                 !
 ! A18   A(1,7,9)              110.6721         -DE/DX =    0.0                 !
 ! A19   A(1,7,10)             110.1285         -DE/DX =    0.0                 !
 ! A20   A(8,7,9)              108.5619         -DE/DX =    0.0                 !
 ! A21   A(8,7,10)             108.529          -DE/DX =    0.0                 !
 ! A22   A(9,7,10)             107.9483         -DE/DX =    0.0                 !
 ! A23   A(5,11,6)              45.8595         -DE/DX =    0.0                 !
 ! A24   A(5,11,12)            124.8307         -DE/DX =    0.0                 !
 ! A25   A(6,11,12)             83.5069         -DE/DX =    0.0                 !
 ! D1    D(4,1,2,5)            168.699          -DE/DX =    0.0                 !
 ! D2    D(4,1,2,6)            -29.2318         -DE/DX =    0.0                 !
 ! D3    D(4,1,2,11)            71.0121         -DE/DX =    0.0                 !
 ! D4    D(4,1,2,12)            50.7518         -DE/DX =    0.0                 !
 ! D5    D(7,1,2,5)             32.1303         -DE/DX =    0.0                 !
 ! D6    D(7,1,2,6)           -165.8005         -DE/DX =    0.0                 !
 ! D7    D(7,1,2,11)           -65.5566         -DE/DX =    0.0                 !
 ! D8    D(7,1,2,12)           -85.817          -DE/DX =    0.0                 !
 ! D9    D(2,1,7,8)            -39.0949         -DE/DX =    0.0                 !
 ! D10   D(2,1,7,9)             81.4654         -DE/DX =    0.0                 !
 ! D11   D(2,1,7,10)          -159.2546         -DE/DX =    0.0                 !
 ! D12   D(3,1,7,8)             51.674          -DE/DX =    0.0                 !
 ! D13   D(3,1,7,9)            172.2342         -DE/DX =    0.0                 !
 ! D14   D(3,1,7,10)           -68.4858         -DE/DX =    0.0                 !
 ! D15   D(4,1,7,8)           -176.9846         -DE/DX =    0.0                 !
 ! D16   D(4,1,7,9)            -56.4244         -DE/DX =    0.0                 !
 ! D17   D(4,1,7,10)            62.8556         -DE/DX =    0.0                 !
 ! D18   D(6,5,11,2)            33.0483         -DE/DX =    0.0                 !
 ! D19   D(12,5,11,2)            3.1847         -DE/DX =    0.0                 !
 ! D20   D(12,6,11,2)          122.2091         -DE/DX =    0.0                 !
 --------------------------------------------------------------------------------
 GradGradGradGradGradGradGradGradGradGradGradGradGradGradGradGradGradGrad

 1\1\GINC-C50N06\Freq\RB3LYP\6-31++G(d,p)\C3H7O2(1-)\ROOT\26-Apr-2018\0
 \\#N Geom=AllCheck Guess=TCheck SCRF=Check GenChk RB3LYP/6-31++G(d,p) 
 Freq\\OH-BACK-TERM\\-1,1\C,-0.0419688652,-0.0080733195,0.0224023234\C,
 -0.0734798269,-0.0206201447,1.4808398744\O,1.3419981455,0.0557063392,0
 .34471149\H,-0.4196278173,0.9140793463,-0.4392639497\H,0.1052923636,-0
 .9516374529,1.9974537084\H,0.0185792537,0.907301081,2.023633289\C,-0.4
 882713403,-1.236131885,-0.7444637528\H,-0.1514603849,-2.1520962879,-0.
 2464483506\H,-1.5810262645,-1.2651677518,-0.8265485781\H,-0.0736643215
 ,-1.2186283797,-1.7590345441\O,-2.1252567088,-0.1657441841,2.193783152
 9\H,-2.4502708035,0.6715197313,1.8326337714\\Version=EM64L-G09RevB.01\
 State=1-A\HF=-269.0624528\RMSD=1.473e-09\RMSF=3.176e-05\ZeroPoint=0.09
 52407\Thermal=0.1018612\Dipole=0.3559935,0.2429504,-1.8972544\DipoleDe
 riv=0.5731753,0.0750118,0.4748944,0.0685227,0.5811501,0.0723067,-0.194
 5678,0.050418,0.7206723,2.9223809,0.0905049,-1.5837183,0.0919969,0.270
 6293,-0.1167279,-1.1157005,-0.0704812,0.7949009,-2.5415582,-0.1461752,
 0.5106243,-0.134647,-0.8062025,-0.0064949,1.0222396,-0.0053252,-1.4016
 25,-0.0225281,0.0736883,-0.1150614,0.1120793,-0.2113034,0.1090477,-0.0
 953096,0.0811589,-0.0510537,-0.0264229,0.0305972,0.0666116,0.0183308,0
 .0038968,0.065955,0.0408973,0.024948,0.0247739,-0.0376829,-0.0482702,0
 .0608934,-0.0134034,0.0092594,-0.0555441,0.0505889,-0.0401801,0.005831
 ,0.0995185,-0.087638,-0.0891715,-0.1237925,-0.048412,-0.1109281,-0.112
 2125,-0.1219114,0.0428022,0.0617698,0.0898653,-0.0517619,0.0477806,-0.
 1266509,0.0579121,-0.0583365,0.1220734,0.0068042,-0.1865208,-0.0347342
 ,-0.0603174,0.0171344,0.0611523,-0.0463802,-0.0040487,-0.0228492,0.080
 7308,0.0460628,-0.0009923,0.1273832,-0.0468136,0.0556813,0.0026979,0.0
 839609,-0.0249728,-0.1765186,-2.1877521,-0.1100133,0.6692407,-0.119547
 6,-0.8675855,-0.1263589,0.406604,-0.1505145,-1.3576081,0.2995577,0.068
 1557,-0.009617,0.0823593,0.0783853,0.1545147,-0.0241151,0.157636,0.310
 2902\Polar=108.6888118,1.5708504,66.3109201,-20.593065,1.0566974,85.00
 40821\PG=C01 [X(C3H7O2)]\NImag=1\\0.36460948,-0.03628715,0.56961434,0.
 09553271,-0.02968517,0.59726945,0.02587656,0.00332493,0.01843236,-0.03
 676062,0.00394827,-0.07696996,0.00822279,-0.03726140,0.71079366,-0.047
 33415,0.00314364,-0.32668038,0.13055697,0.00876740,0.59938532,-0.22234
 679,-0.00584397,-0.05929811,0.01068887,0.00319527,0.00604431,0.2954566
 8,0.00014919,-0.06771556,-0.00094189,0.00202456,-0.02302625,0.00043612
 ,0.00907601,0.06788360,-0.00833809,-0.00022924,-0.04043278,-0.06343368
 ,-0.00396992,0.00852553,0.05949836,0.00424044,0.04483348,-0.06516394,0
 .06416509,-0.02780923,-0.00046702,-0.01000210,0.00463036,-0.02658155,0
 .02618429,-0.02220763,0.08343332,0.06150672,-0.23558537,0.08823926,0.0
 0096512,-0.00018305,-0.00233812,0.00499447,0.00922919,-0.00025000,-0.0
 7268107,0.24933795,-0.02771582,0.08666367,-0.09570932,-0.00908906,0.02
 731775,-0.01280602,-0.00886667,-0.00183019,0.00120817,0.04250628,-0.09
 403790,0.10151286,-0.00542869,0.00996774,0.00032761,-0.02823015,0.0486
 9450,-0.03987203,-0.00349267,-0.01257518,0.01701606,0.00096314,-0.0001
 5565,-0.00246684,0.04453903,0.00069125,0.00362623,-0.00301451,0.047028
 43,-0.29398180,0.12803545,-0.00079888,0.00174541,-0.00085214,-0.000079
 43,0.00081769,-0.00059991,-0.04834511,0.29553566,-0.00238806,0.0232455
 5,-0.01135545,-0.02643107,0.12573378,-0.11825367,-0.00179436,0.0013824
 7,-0.00354881,0.00204999,-0.00025354,-0.00335395,0.02246717,-0.1349937
 5,0.12503917,-0.00393839,-0.01081616,0.00124378,-0.02218235,-0.0232523
 1,-0.03079637,-0.00448239,0.01165318,0.01641278,-0.00003086,0.00022574
 ,0.00088459,0.00408897,0.00427844,0.00188403,0.03725293,-0.00136043,0.
 00450047,0.00509428,-0.02104678,-0.29564759,-0.13704242,0.00057921,0.0
 0322492,0.00227168,0.00058356,0.00078802,-0.00045597,-0.00280769,-0.01
 150399,-0.01250103,0.02382272,0.29588103,-0.00051124,-0.02223796,-0.00
 997908,-0.01617043,-0.13293470,-0.12629333,-0.00098631,-0.00166309,-0.
 00375977,-0.00057346,-0.00000052,0.00133174,0.00056529,0.01200066,0.00
 933284,0.01155674,0.14167401,0.13299133,-0.07655222,-0.01976743,-0.008
 69524,-0.00156220,0.01066778,0.00380061,-0.02291073,-0.03202783,-0.026
 64442,0.00527443,0.00729978,0.00411194,0.00023852,-0.00065067,-0.00048
 570,0.00125446,-0.00023040,0.00262937,0.55888371,-0.02383944,-0.176007
 16,-0.05243412,0.00027203,-0.00014380,-0.00307356,-0.00537001,0.004926
 42,-0.00114292,-0.00744379,-0.02245439,-0.01496070,0.00013770,0.001041
 12,0.00111428,0.00051012,0.00053577,0.00153238,-0.02505918,0.51521086,
 -0.01323581,-0.05020558,-0.11183258,-0.00727481,-0.02944994,-0.0191334
 3,-0.00833951,-0.00007125,0.00223357,0.00320385,0.01148236,0.00758463,
 0.00081471,-0.00030484,0.00158787,-0.00195489,0.00032154,-0.00344462,-
 0.01061952,-0.04006873,0.54575325,0.00079304,-0.00840516,0.00409826,0.
 00054913,0.00030037,0.00018793,0.00157393,-0.00031300,0.00109539,0.000
 48696,-0.00150960,-0.00093972,-0.00010006,0.00028077,0.00006196,0.0000
 1050,-0.00003367,0.00003852,-0.07267930,0.06956779,-0.03781595,0.07314
 213,0.01029849,-0.02436509,0.01332767,0.00036802,0.00084506,0.00139166
 ,-0.00009085,0.00285885,0.00032345,-0.00207511,-0.00378809,-0.00340061
 ,-0.00033407,0.00026001,-0.00063293,0.00007970,0.00022052,-0.00014667,
 0.06727424,-0.22794773,0.10051159,-0.07456468,0.24960181,0.00565598,-0
 .01547863,0.00707171,0.00071609,-0.00106548,0.00140174,0.00119696,0.00
 139476,0.00067033,-0.00125001,-0.00302872,-0.00081422,-0.00006966,0.00
 040450,0.00015250,0.00005522,0.00008356,0.00009742,-0.03853527,0.10301
 997,-0.10507376,0.04244511,-0.10939521,0.10989570,-0.00770213,0.002965
 62,0.00093679,-0.00122574,-0.00008248,0.00056368,-0.00049561,-0.002947
 19,-0.00204870,0.00059576,-0.00037979,-0.00002153,0.00010335,-0.000085
 28,-0.00009167,0.00000838,0.00002271,-0.00013196,-0.30901203,-0.006462
 05,-0.01941858,-0.00759709,-0.00046830,-0.00014079,0.33527667,-0.02556
 469,0.00306634,0.00165918,-0.00085389,0.00100764,0.00098426,-0.0031615
 8,-0.00452911,-0.00482593,0.00083201,0.00066774,0.00069611,0.00009513,
 -0.00000467,-0.00021446,0.00009935,-0.00007641,0.00006475,-0.00447791,
 -0.04775125,-0.00065136,0.02596839,0.00192733,0.00064365,0.00725886,0.
 04665085,-0.01570984,0.00325512,-0.00108457,-0.00072302,0.00112830,0.0
 0115190,-0.00223884,-0.00434458,-0.00235137,0.00049583,0.00012747,0.00
 037915,0.00009276,-0.00008066,-0.00010564,0.00001425,-0.00008124,0.000
 16499,-0.01831909,-0.00100059,-0.04616573,-0.01445318,-0.00151810,-0.0
 0140608,0.02110401,0.00184800,0.04609062,0.00207201,-0.00004186,-0.011
 22591,0.00012777,-0.00218858,-0.00155125,0.00197073,0.00117512,0.00107
 532,-0.00001415,0.00040988,0.00039408,-0.00001629,-0.00001081,0.000159
 91,-0.00003934,-0.00010479,-0.00057329,-0.08387803,-0.00141125,0.09466
 055,0.00386312,-0.00063199,-0.01010018,-0.01056608,-0.00078690,0.02935
 997,0.08653992,0.01172507,0.00095215,-0.02871272,-0.00086023,-0.004607
 82,-0.00147079,-0.00005030,0.00174524,0.00289305,0.00023263,0.00116860
 ,0.00087110,-0.00007065,0.00009544,-0.00012643,-0.00054007,0.00019707,
 -0.00128264,-0.00291915,-0.04693500,0.00877839,-0.01120852,0.00032490,
 0.02342405,-0.00008591,-0.00092891,0.00075017,0.00348717,0.04787347,0.
 00653758,0.00179751,-0.01646780,-0.00013181,-0.00406395,0.00016788,-0.
 00121323,0.00073657,0.00156205,-0.00027631,-0.00030527,0.00091338,0.00
 018050,0.00002475,0.00026143,-0.00062183,0.00012640,-0.00074088,0.0932
 2511,0.00687100,-0.27102874,0.00525046,-0.00028719,-0.01199148,-0.0010
 2000,0.00005479,0.00361386,-0.10243422,-0.00500277,0.29396795,-0.01206
 270,0.00024702,-0.01460968,0.05579202,-0.00106865,-0.02255779,-0.02983
 631,-0.00110645,0.02675180,0.00152203,-0.00066271,0.00110030,-0.010437
 53,-0.00139506,0.00346628,-0.01205828,0.00115839,0.00481199,0.00088056
 ,-0.00088804,0.00000656,-0.00004496,0.00016469,0.00005099,0.00060257,0
 .00060628,0.00037745,-0.00006250,0.00032665,0.00053839,0.06747455,-0.0
 0098638,-0.00090675,-0.00109455,0.00490252,-0.01861880,0.00161211,-0.0
 0143868,0.00353275,0.00079032,0.00017361,0.00001299,-0.00016785,0.0056
 8587,0.00209352,-0.00277032,-0.00573361,0.00171169,0.00293342,-0.00011
 177,-0.00042343,-0.00035712,-0.00006971,0.00004916,0.00001034,0.000243
 70,-0.00002368,-0.00006083,0.00010888,0.00007729,0.00001654,-0.1463118
 8,0.40435071,0.00744147,-0.00000694,0.00937721,-0.02701138,0.00219850,
 -0.00939781,0.01558347,0.00029772,-0.00816114,-0.00066750,0.00030757,-
 0.00023805,0.00008939,-0.00072284,0.00053394,0.00131915,0.00070555,0.0
 0048340,-0.00044935,0.00013768,-0.00043311,0.00004637,-0.00019863,-0.0
 0000403,0.00027602,-0.00025213,-0.00028057,0.00023141,-0.00012905,-0.0
 0024826,0.06373271,-0.17158563,0.08430792,-0.00015623,0.00049134,0.001
 06665,-0.00260627,0.00704932,-0.00367227,0.00045583,-0.00129271,0.0008
 2281,-0.00001813,-0.00001288,0.00010246,-0.00222763,-0.00091365,0.0011
 0153,0.00011636,-0.00058284,-0.00065522,0.00006282,-0.00001388,-0.0000
 2661,0.00000260,-0.00002015,-0.00002443,0.00001196,-0.00001504,-0.0000
 0030,0.00000282,-0.00003669,-0.00003464,-0.06176945,0.14353743,-0.0605
 9177,0.06612531,-0.00028092,-0.00020962,-0.00066023,0.00113667,0.00053
 271,-0.00044575,-0.00109069,0.00012455,0.00075120,0.00011030,-0.000011
 28,-0.00009549,-0.00029259,0.00027538,0.00001637,-0.00032710,0.0001684
 9,0.00006036,0.00000255,-0.00005141,0.00001494,-0.00001298,0.00001328,
 -0.00001277,0.00002011,-0.00000588,-0.00002306,-0.00000485,0.00003756,
 0.00003161,0.14892976,-0.39185546,0.16924819,-0.14819026,0.39098168,0.
 00006528,-0.00026198,-0.00017640,0.00055984,-0.00188453,0.00193230,0.0
 0041392,0.00036293,-0.00077927,-0.00010217,0.00005741,-0.00000837,0.00
 085503,0.00010329,-0.00029023,0.00000255,-0.00019637,-0.00018403,-0.00
 001845,0.00000530,-0.00004736,-0.00001514,0.00002497,0.00000018,-0.000
 00727,-0.00000686,-0.00000658,0.00000361,0.00000764,-0.00000940,-0.063
 66900,0.17067355,-0.07593951,0.06191181,-0.16888536,0.07550867\\0.0000
 5316,-0.00000809,0.00000197,0.00001631,-0.00002327,0.00000891,-0.00003
 285,-0.00005425,-0.00003946,0.00002504,0.00000148,0.00000424,0.0000040
 5,-0.00002009,-0.00001549,0.00005684,-0.00002065,-0.00000123,-0.000045
 42,0.00000332,-0.00000197,-0.00006116,-0.00000689,-0.00001137,-0.00004
 401,0.00003623,0.00001120,-0.00005457,-0.00000419,-0.00000832,0.000034
 39,0.00004565,0.00002102,0.00004821,0.00005077,0.00003051\\\@


 We find comfort among those who agree with us -- growth among those who don't.
 -- Frank A. Clark
 Job cpu time:  0 days  0 hours  9 minutes  7.8 seconds.
 File lengths (MBytes):  RWF=   2256 Int=      0 D2E=      0 Chk=     32 Scr=     32
 Normal termination of Gaussian 09 at Thu Apr 26 15:44:09 2018.
