 Entering Gaussian System, Link 0=g09
 Input=H2O-mid-field.gjf
 Output=H2O-mid-field.log
 Initial command:
 /share/home/zxchen/g09/l1.exe /scratch/zxchen/Gau-28612.inp -scrdir=/scratch/zxchen/
 Entering Link 1 = /share/home/zxchen/g09/l1.exe PID=     28613.
  
 Copyright (c) 1988,1990,1992,1993,1995,1998,2003,2009,2010,
            Gaussian, Inc.  All Rights Reserved.
  
 This is part of the Gaussian(R) 09 program.  It is based on
 the Gaussian(R) 03 system (copyright 2003, Gaussian, Inc.),
 the Gaussian(R) 98 system (copyright 1998, Gaussian, Inc.),
 the Gaussian(R) 94 system (copyright 1995, Gaussian, Inc.),
 the Gaussian 92(TM) system (copyright 1992, Gaussian, Inc.),
 the Gaussian 90(TM) system (copyright 1990, Gaussian, Inc.),
 the Gaussian 88(TM) system (copyright 1988, Gaussian, Inc.),
 the Gaussian 86(TM) system (copyright 1986, Carnegie Mellon
 University), and the Gaussian 82(TM) system (copyright 1983,
 Carnegie Mellon University). Gaussian is a federally registered
 trademark of Gaussian, Inc.
  
 This software contains proprietary and confidential information,
 including trade secrets, belonging to Gaussian, Inc.
  
 This software is provided under written license and may be
 used, copied, transmitted, or stored only in accord with that
 written license.
  
 The following legend is applicable only to US Government
 contracts under FAR:
  
                    RESTRICTED RIGHTS LEGEND
  
 Use, reproduction and disclosure by the US Government is
 subject to restrictions as set forth in subparagraphs (a)
 and (c) of the Commercial Computer Software - Restricted
 Rights clause in FAR 52.227-19.
  
 Gaussian, Inc.
 340 Quinnipiac St., Bldg. 40, Wallingford CT 06492
  
  
 ---------------------------------------------------------------
 Warning -- This program may not be used in any manner that
 competes with the business of Gaussian, Inc. or will provide
 assistance to any competitor of Gaussian, Inc.  The licensee
 of this program is prohibited from giving any competitor of
 Gaussian, Inc. access to this program.  By using this program,
 the user acknowledges that Gaussian, Inc. is engaged in the
 business of creating and licensing software in the field of
 computational chemistry and represents and warrants to the
 licensee that it is not a competitor of Gaussian, Inc. and that
 it will not use this program in any manner prohibited above.
 ---------------------------------------------------------------
  

 Cite this work as:
 Gaussian 09, Revision B.01,
 M. J. Frisch, G. W. Trucks, H. B. Schlegel, G. E. Scuseria, 
 M. A. Robb, J. R. Cheeseman, G. Scalmani, V. Barone, B. Mennucci, 
 G. A. Petersson, H. Nakatsuji, M. Caricato, X. Li, H. P. Hratchian, 
 A. F. Izmaylov, J. Bloino, G. Zheng, J. L. Sonnenberg, M. Hada, 
 M. Ehara, K. Toyota, R. Fukuda, J. Hasegawa, M. Ishida, T. Nakajima, 
 Y. Honda, O. Kitao, H. Nakai, T. Vreven, J. A. Montgomery, Jr., 
 J. E. Peralta, F. Ogliaro, M. Bearpark, J. J. Heyd, E. Brothers, 
 K. N. Kudin, V. N. Staroverov, T. Keith, R. Kobayashi, J. Normand, 
 K. Raghavachari, A. Rendell, J. C. Burant, S. S. Iyengar, J. Tomasi, 
 M. Cossi, N. Rega, J. M. Millam, M. Klene, J. E. Knox, J. B. Cross, 
 V. Bakken, C. Adamo, J. Jaramillo, R. Gomperts, R. E. Stratmann, 
 O. Yazyev, A. J. Austin, R. Cammi, C. Pomelli, J. W. Ochterski, 
 R. L. Martin, K. Morokuma, V. G. Zakrzewski, G. A. Voth, 
 P. Salvador, J. J. Dannenberg, S. Dapprich, A. D. Daniels, 
 O. Farkas, J. B. Foresman, J. V. Ortiz, J. Cioslowski, 
 and D. J. Fox, Gaussian, Inc., Wallingford CT, 2010.
 
 ******************************************
 Gaussian 09:  EM64L-G09RevB.01 12-Aug-2010
                 6-Mar-2018 
 ******************************************
 %chk=H2O-mid-field.chk
 %nprocshared=24
 Will use up to   24 processors via shared memory.
 ----------------------------------------------------------------------
 # field=z-50 freq opt=(ts,noeigen,calcall,z-matrix) nosymm rb3lyp/6-31
 ++g(d,p)
 ----------------------------------------------------------------------
 1/5=1,10=4,11=1,14=-1,18=40,26=3,38=1/1,3;
 2/12=2,15=1,17=6,18=5,29=3,40=1/2;
 3/5=1,6=6,7=1111,11=2,14=3,15=-50,16=1,25=1,30=1,71=2,74=-5,116=1/1,2,3;
 4//1;
 5/5=2,38=5/2;
 8/6=4,10=90,11=11/1;
 11/6=1,8=1,9=11,15=111,16=1,31=1/1,2,10;
 10/6=1,31=1/2;
 6/7=2,8=2,9=2,10=2,18=1,28=1/1;
 7/10=1,25=1,30=1/1,2,3,16;
 1/5=1,10=4,11=1,14=-1,18=40/3(3);
 2/15=1,29=3/2;
 7/8=1,9=1,25=1,30=1,44=-1/16;
 99//99;
 2/15=1,29=3/2;
 3/5=1,6=6,7=1111,11=2,14=3,15=-50,16=1,25=1,30=1,71=2,74=-5,116=1/1,2,3;
 4/5=5,16=3/1;
 5/5=2,38=5/2;
 8/6=4,10=90,11=11/1;
 11/6=1,8=1,9=11,15=111,16=1,31=1/1,2,10;
 10/6=1,31=1/2;
 7/10=1,25=1,30=1/1,2,3,16;
 1/5=1,10=4,11=1,14=-1,18=40/3(-8);
 2/15=1,29=3/2;
 6/7=2,8=2,9=2,10=2,18=1,19=2,28=1/1;
 7/8=1,9=1,25=1,30=1,44=-1/16;
 99//99;
 -----------
 OH-BACK-MID
 -----------
 Symbolic Z-matrix:
 Charge =  0 Multiplicity = 1
 C
 O                    1     2.28585 
 H                    1    B1       2    A1
 H                    1    B2       2    A2       3    D1       0
 H                    1    B3       2    A3       4    D2       0
 H                    1    B4       2    A4       5    D3       0
 H                    1    B5       2    A5       5    D4       0
 H                    2    B6       1    A6       5    D5       0
 H                    1    B7       2    A7       8    D6       0
 H                    2    B8       1    A8       5    D7       0
 C                    1    B9       2    A9       10   D8       0
 C                    1    B10      11   A10      2    D9       0
 O                    11   B11      1    A11      12   D10      0
       Variables:
  B1                    2.11148                  
  B2                    2.13438                  
  B3                    1.07                     
  B4                    2.05819                  
  B5                    2.12328                  
  B6                    1.04792                  
  B7                    2.11083                  
  B8                    0.96                     
  B9                    1.48493                  
  B10                   1.47551                  
  B11                   1.43                     
  A1                  123.20122                  
  A2                   94.26057                  
  A3                   78.55339                  
  A4                  120.93438                  
  A5                  101.7495                   
  A6                   70.43868                  
  A7                   73.28177                  
  A8                  120.41597                  
  A9                   97.80224                  
  A10                 121.26136                  
  A11                  98.08895                  
  D1                   41.18783                  
  D2                   93.46492                  
  D3                   93.92322                  
  D4                  143.65601                  
  D5                  145.28555                  
  D6                 -111.286                    
  D7                   45.35218                  
  D8                  -75.67965                  
  D9                  105.38324                  
  D10                  68.63585                  
 

 GradGradGradGradGradGradGradGradGradGradGradGradGradGradGradGradGradGrad
 Berny optimization.
 Initialization pass.
                       ----------------------------
                       !    Initial Parameters    !
                       ! (Angstroms and Degrees)  !
 ----------------------                            ----------------------
 !      Name          Value   Derivative information (Atomic Units)     !
 ------------------------------------------------------------------------
 !       B1          2.1115   calculate D2E/DX2 analytically            !
 !       B2          2.1344   calculate D2E/DX2 analytically            !
 !       B3          1.07     calculate D2E/DX2 analytically            !
 !       B4          2.0582   calculate D2E/DX2 analytically            !
 !       B5          2.1233   calculate D2E/DX2 analytically            !
 !       B6          1.0479   calculate D2E/DX2 analytically            !
 !       B7          2.1108   calculate D2E/DX2 analytically            !
 !       B8          0.96     calculate D2E/DX2 analytically            !
 !       B9          1.4849   calculate D2E/DX2 analytically            !
 !       B10         1.4755   calculate D2E/DX2 analytically            !
 !       B11         1.43     calculate D2E/DX2 analytically            !
 !       A1        123.2012   calculate D2E/DX2 analytically            !
 !       A2         94.2606   calculate D2E/DX2 analytically            !
 !       A3         78.5534   calculate D2E/DX2 analytically            !
 !       A4        120.9344   calculate D2E/DX2 analytically            !
 !       A5        101.7495   calculate D2E/DX2 analytically            !
 !       A6         70.4387   calculate D2E/DX2 analytically            !
 !       A7         73.2818   calculate D2E/DX2 analytically            !
 !       A8        120.416    calculate D2E/DX2 analytically            !
 !       A9         97.8022   calculate D2E/DX2 analytically            !
 !       A10       121.2614   calculate D2E/DX2 analytically            !
 !       A11        98.089    calculate D2E/DX2 analytically            !
 !       D1         41.1878   calculate D2E/DX2 analytically            !
 !       D2         93.4649   calculate D2E/DX2 analytically            !
 !       D3         93.9232   calculate D2E/DX2 analytically            !
 !       D4        143.656    calculate D2E/DX2 analytically            !
 !       D5        145.2855   calculate D2E/DX2 analytically            !
 !       D6       -111.286    calculate D2E/DX2 analytically            !
 !       D7         45.3522   calculate D2E/DX2 analytically            !
 !       D8        -75.6797   calculate D2E/DX2 analytically            !
 !       D9        105.3832   calculate D2E/DX2 analytically            !
 !       D10        68.6358   calculate D2E/DX2 analytically            !
 ------------------------------------------------------------------------
 Trust Radius=3.00D-01 FncErr=1.00D-07 GrdErr=1.00D-06
 Number of steps in this run=     42 maximum allowed number of steps=    100.
 Search for a saddle point of order  1.
 GradGradGradGradGradGradGradGradGradGradGradGradGradGradGradGradGradGrad

 ---------------------------------------------------------------------------------------------------
                            Z-MATRIX (ANGSTROMS AND DEGREES)
   CD    Cent   Atom    N1       Length/X        N2       Alpha/Y        N3        Beta/Z          J
 ---------------------------------------------------------------------------------------------------
      1      1  C 
      2      2  O        1   2.285847(     1)
      3      3  H        1   2.111485(     2)      2  123.201(    13)
      4      4  H        1   2.134380(     3)      2   94.261(    14)      3   41.188(    24)      0
      5      5  H        1   1.070000(     4)      2   78.553(    15)      4   93.465(    25)      0
      6      6  H        1   2.058188(     5)      2  120.934(    16)      5   93.923(    26)      0
      7      7  H        1   2.123275(     6)      2  101.750(    17)      5  143.656(    27)      0
      8      8  H        2   1.047923(     7)      1   70.439(    18)      5  145.286(    28)      0
      9      9  H        1   2.110834(     8)      2   73.282(    19)      8 -111.286(    29)      0
     10     10  H        2   0.960000(     9)      1  120.416(    20)      5   45.352(    30)      0
     11     11  C        1   1.484928(    10)      2   97.802(    21)     10  -75.680(    31)      0
     12     12  C        1   1.475515(    11)     11  121.261(    22)      2  105.383(    32)      0
     13     13  O       11   1.430000(    12)      1   98.089(    23)     12   68.636(    33)      0
 ---------------------------------------------------------------------------------------------------
                         Z-Matrix orientation:                         
 ---------------------------------------------------------------------
 Center     Atomic      Atomic             Coordinates (Angstroms)
 Number     Number       Type             X           Y           Z
 ---------------------------------------------------------------------
      1          6           0        0.000000    0.000000    0.000000
      2          8           0        0.000000    0.000000    2.285847
      3          1           0        1.766791    0.000000   -1.156209
      4          1           0        1.601799   -1.401668   -0.158568
      5          1           0       -0.737048   -0.746036    0.212347
      6          1           0       -1.168051    1.323775   -1.058024
      7          1           0        0.300400    2.056967   -0.432370
      8          1           0        0.970487    0.182197    1.934986
      9          1           0       -1.068860    1.715940    0.607214
     10          1           0        0.010106   -0.827816    2.771870
     11          6           0        1.429804   -0.346459   -0.201585
     12          6           0       -0.495040    1.371242   -0.227540
     13          8           0        1.972698    0.393544    0.895029
 ---------------------------------------------------------------------
                    Distance matrix (angstroms):
                    1          2          3          4          5
     1  C    0.000000
     2  O    2.285847   0.000000
     3  H    2.111485   3.869018   0.000000
     4  H    2.134380   3.241234   1.728347   0.000000
     5  H    1.070000   2.323620   2.949359   2.457160   0.000000
     6  H    2.058188   3.781295   3.221074   3.988625   2.466520
     7  H    2.123275   3.421996   2.627805   3.705505   3.057578
     8  H    2.172374   1.047923   3.197308   2.700028   2.597070
     9  H    2.110834   2.627684   3.754334   4.175922   2.515422
    10  H    2.892861   0.960000   4.381897   3.383824   2.667599
    11  C    1.484928   2.889929   1.070000   1.070000   2.241929
    12  C    1.475515   2.905595   2.803321   3.477143   2.175991
    13  O    2.201702   2.445566   2.098774   2.114337   3.017850
                    6          7          8          9         10
     6  H    0.000000
     7  H    1.756521   0.000000
     8  H    3.851578   3.093243   0.000000
     9  H    1.713665   1.752685   2.876505   0.000000
    10  H    4.548130   4.321273   1.625679   3.510071   0.000000
    11  C    3.204999   2.665571   2.248418   3.339306   3.329968
    12  C    1.070000   1.070000   2.870212   1.070000   3.753331
    13  O    3.813667   2.706574   1.459660   3.329061   2.977587
                   11         12         13
    11  C    0.000000
    12  C    2.579960   0.000000
    13  O    1.430000   2.881977   0.000000
 Symmetry turned off by external request.
 Stoichiometry    C3H8O2
 Framework group  C1[X(C3H8O2)]
 Deg. of freedom    33
 Full point group                 C1      NOp   1
 Rotational constants (GHZ):      4.9557473      4.6524424      3.0631878
 Standard basis: 6-31++G(d,p) (6D, 7F)
 The following finite field(s) will be applied:
 An electric field of              0.0000  0.0000 -0.0050
 Integral buffers will be    131072 words long.
 Raffenetti 2 integral format.
 Two-electron integral symmetry is turned off.
   143 basis functions,   224 primitive gaussians,   143 cartesian basis functions
    21 alpha electrons       21 beta electrons
       nuclear repulsion energy       189.6946520502 Hartrees.
 NAtoms=   13 NActive=   13 NUniq=   13 SFac= 1.00D+00 NAtFMM=   50 NAOKFM=F Big=F
 One-electron integrals computed using PRISM.
 PrsmSu:  requested number of processors reduced to:  10 ShMem   1 Linda.
 NBasis=   143 RedAO= T  NBF=   143
 NBsUse=   143 1.00D-06 NBFU=   143
 The nuclear repulsion energy is now       189.4528285830 hartrees.
 Harris functional with IExCor=  402 diagonalized for initial guess.
 ExpMin= 3.60D-02 ExpMax= 5.48D+03 ExpMxC= 8.25D+02 IAcc=3 IRadAn=         0 AccDes= 0.00D+00
 HarFok:  IExCor=  402 AccDes= 0.00D+00 IRadAn=         0 IDoV= 1
 ScaDFX=  1.000000  1.000000  1.000000  1.000000
 FoFCou: FMM=F IPFlag=           0 FMFlag=      100000 FMFlg1=           0
         NFxFlg=           0 DoJE=T BraDBF=F KetDBF=T FulRan=T
         Omega=  0.000000  0.000000  1.000000  0.000000  0.000000 ICntrl=     500 IOpCl=  0
         NMat0=    1 NMatS0=    1 NMatT0=    0 NMatD0=    1 NMtDS0=    0 NMtDT0=    0
         I1Cent=           4 NGrid=           0.
 Symmetry not used in FoFCou.
 Requested convergence on RMS density matrix=1.00D-08 within 128 cycles.
 Requested convergence on MAX density matrix=1.00D-06.
 Requested convergence on             energy=1.00D-06.
 No special actions if energy rises.
 EnCoef did     3 forward-backward iterations
 EnCoef did     2 forward-backward iterations
 SCF Done:  E(RB3LYP) =  -269.485520337     A.U. after   16 cycles
             Convg  =    0.6197D-08             -V/T =  2.0088
 Range of M.O.s used for correlation:     1   143
 NBasis=   143 NAE=    21 NBE=    21 NFC=     0 NFV=     0
 NROrb=    143 NOA=    21 NOB=    21 NVA=   122 NVB=   122

 **** Warning!!: The largest alpha MO coefficient is  0.46625821D+02

 PrsmSu:  requested number of processors reduced to:  10 ShMem   1 Linda.
 PrsmSu:  requested number of processors reduced to:  17 ShMem   1 Linda.
 Symmetrizing basis deriv contribution to polar:
 IMax=3 JMax=2 DiffMx= 0.00D+00
 G2DrvN: will do     3 centers at a time, making    5 passes doing MaxLOS=2.
 Estimated number of processors is:   15
 Calling FoFCou, ICntrl=  3107 FMM=F I1Cent=   0 AccDes= 0.00D+00.
 CoulSu:  requested number of processors reduced to:  15 ShMem   1 Linda.
 Calling FoFCou, ICntrl=  3107 FMM=F I1Cent=   0 AccDes= 0.00D+00.
 CoulSu:  requested number of processors reduced to:  15 ShMem   1 Linda.
 Calling FoFCou, ICntrl=  3107 FMM=F I1Cent=   0 AccDes= 0.00D+00.
 CoulSu:  requested number of processors reduced to:  15 ShMem   1 Linda.
 Calling FoFCou, ICntrl=  3107 FMM=F I1Cent=   0 AccDes= 0.00D+00.
 CoulSu:  requested number of processors reduced to:  15 ShMem   1 Linda.
 Calling FoFCou, ICntrl=  3107 FMM=F I1Cent=   0 AccDes= 0.00D+00.
 CoulSu:  requested number of processors reduced to:  15 ShMem   1 Linda.
 FoFDir/FoFCou used for L=0 through L=2.
 End of G2Drv Frequency-dependent properties file   721 does not exist.
 End of G2Drv Frequency-dependent properties file   722 does not exist.
          IDoAtm=1111111111111
          Differentiating once with respect to electric field.
                with respect to dipole field.
          Differentiating once with respect to nuclear coordinates.
 PrRfSu:  requested number of processors reduced to:  16 ShMem   1 Linda.
 CalDSu:  requested number of processors reduced to:  22 ShMem   1 Linda.
 PrRfSu:  requested number of processors reduced to:  16 ShMem   1 Linda.
 CalDSu:  requested number of processors reduced to:  22 ShMem   1 Linda.
          There are    42 degrees of freedom in the 1st order CPHF.  IDoFFX=5.
     42 vectors produced by pass  0 Test12= 6.10D-15 2.38D-09 XBig12= 1.14D+02 8.80D+00.
 AX will form    21 AO Fock derivatives at one time.
 PrRfSu:  requested number of processors reduced to:  16 ShMem   1 Linda.
 CalDSu:  requested number of processors reduced to:  22 ShMem   1 Linda.
 PrRfSu:  requested number of processors reduced to:  16 ShMem   1 Linda.
 CalDSu:  requested number of processors reduced to:  22 ShMem   1 Linda.
     39 vectors produced by pass  1 Test12= 6.10D-15 2.38D-09 XBig12= 4.21D+01 1.40D+00.
 PrRfSu:  requested number of processors reduced to:  15 ShMem   1 Linda.
 CalDSu:  requested number of processors reduced to:  19 ShMem   1 Linda.
     39 vectors produced by pass  2 Test12= 6.10D-15 2.38D-09 XBig12= 4.82D-01 1.13D-01.
 PrRfSu:  requested number of processors reduced to:  15 ShMem   1 Linda.
 CalDSu:  requested number of processors reduced to:  19 ShMem   1 Linda.
     39 vectors produced by pass  3 Test12= 6.10D-15 2.38D-09 XBig12= 1.48D-03 7.20D-03.
 PrRfSu:  requested number of processors reduced to:  15 ShMem   1 Linda.
 CalDSu:  requested number of processors reduced to:  19 ShMem   1 Linda.
     39 vectors produced by pass  4 Test12= 6.10D-15 2.38D-09 XBig12= 2.23D-06 2.50D-04.
 PrRfSu:  requested number of processors reduced to:  15 ShMem   1 Linda.
 CalDSu:  requested number of processors reduced to:  19 ShMem   1 Linda.
     25 vectors produced by pass  5 Test12= 6.10D-15 2.38D-09 XBig12= 1.97D-09 9.29D-06.
 PrRfSu:  requested number of processors reduced to:  16 ShMem   1 Linda.
 CalDSu:  requested number of processors reduced to:  21 ShMem   1 Linda.
      3 vectors produced by pass  6 Test12= 6.10D-15 2.38D-09 XBig12= 1.60D-12 1.85D-07.
      3 vectors produced by pass  7 Test12= 6.10D-15 2.38D-09 XBig12= 1.02D-14 1.94D-08.
 Inverted reduced A of dimension   229 with in-core refinement.
 Isotropic polarizability for W=    0.000000       57.34 Bohr**3.
 End of Minotr Frequency-dependent properties file   721 does not exist.
 End of Minotr Frequency-dependent properties file   722 does not exist.

 **********************************************************************

            Population analysis using the SCF density.

 **********************************************************************

 Alpha  occ. eigenvalues --  -19.13835 -19.09642 -10.29402 -10.23633 -10.20780
 Alpha  occ. eigenvalues --   -0.98962  -0.93731  -0.80995  -0.69955  -0.60463
 Alpha  occ. eigenvalues --   -0.51423  -0.50503  -0.46070  -0.45062  -0.41276
 Alpha  occ. eigenvalues --   -0.40481  -0.38304  -0.34975  -0.30284  -0.23215
 Alpha  occ. eigenvalues --   -0.22963
 Alpha virt. eigenvalues --   -0.10920  -0.02762  -0.00068   0.00086   0.02140
 Alpha virt. eigenvalues --    0.03513   0.04947   0.05545   0.06572   0.07610
 Alpha virt. eigenvalues --    0.08606   0.10227   0.11195   0.11851   0.11968
 Alpha virt. eigenvalues --    0.12331   0.13445   0.14490   0.15212   0.15439
 Alpha virt. eigenvalues --    0.18396   0.19370   0.20918   0.21769   0.22570
 Alpha virt. eigenvalues --    0.24276   0.24904   0.25729   0.27973   0.29292
 Alpha virt. eigenvalues --    0.30148   0.31090   0.32735   0.33524   0.34944
 Alpha virt. eigenvalues --    0.36332   0.37891   0.39103   0.41162   0.44642
 Alpha virt. eigenvalues --    0.61800   0.66302   0.68694   0.71801   0.73671
 Alpha virt. eigenvalues --    0.75968   0.77046   0.79508   0.83676   0.92831
 Alpha virt. eigenvalues --    0.95124   0.95186   0.97785   1.01789   1.04742
 Alpha virt. eigenvalues --    1.07260   1.11933   1.13186   1.18585   1.21795
 Alpha virt. eigenvalues --    1.25539   1.26754   1.31708   1.32680   1.35196
 Alpha virt. eigenvalues --    1.38269   1.44055   1.46849   1.49857   1.56613
 Alpha virt. eigenvalues --    1.59862   1.64308   1.69527   1.74921   1.77641
 Alpha virt. eigenvalues --    1.79976   1.87512   1.89925   1.91907   1.92079
 Alpha virt. eigenvalues --    1.94390   2.01023   2.02696   2.06257   2.13298
 Alpha virt. eigenvalues --    2.14270   2.19165   2.23640   2.31840   2.34647
 Alpha virt. eigenvalues --    2.36208   2.39146   2.41772   2.42698   2.50647
 Alpha virt. eigenvalues --    2.55569   2.59401   2.59791   2.65298   2.67434
 Alpha virt. eigenvalues --    2.73047   2.76337   2.86384   2.88913   2.90984
 Alpha virt. eigenvalues --    2.93380   2.98226   3.01803   3.11115   3.30089
 Alpha virt. eigenvalues --    3.34186   3.42037   3.45796   3.47686   3.48768
 Alpha virt. eigenvalues --    3.56452   3.75450   4.21735   4.34110   4.42281
 Alpha virt. eigenvalues --    4.53426   4.67723
          Condensed to atoms (all electrons):
              1          2          3          4          5          6
     1  C    7.515560   0.161984   0.030178  -0.136186   0.354915  -0.092319
     2  O    0.161984   8.425412  -0.006204  -0.001939  -0.017290  -0.001863
     3  H    0.030178  -0.006204   0.815067  -0.169226   0.055964  -0.015804
     4  H   -0.136186  -0.001939  -0.169226   0.786793  -0.073742   0.012243
     5  H    0.354915  -0.017290   0.055964  -0.073742   0.588946  -0.022963
     6  H   -0.092319  -0.001863  -0.015804   0.012243  -0.022963   0.613981
     7  H   -0.145104  -0.000014   0.002701   0.000731   0.000232  -0.029069
     8  H   -0.033297   0.162129   0.013349  -0.011436   0.007952  -0.000554
     9  H   -0.006566   0.007965   0.007124  -0.006953   0.010485  -0.045198
    10  H   -0.068880   0.243935  -0.000010   0.002259  -0.002349   0.001085
    11  C   -0.614358  -0.066895   0.331998   0.405257  -0.015769  -0.013823
    12  C   -1.245413  -0.051340  -0.113369   0.109122  -0.120080   0.434809
    13  O   -0.132876  -0.130574  -0.068356  -0.049079   0.017388   0.016565
              7          8          9         10         11         12
     1  C   -0.145104  -0.033297  -0.006566  -0.068880  -0.614358  -1.245413
     2  O   -0.000014   0.162129   0.007965   0.243935  -0.066895  -0.051340
     3  H    0.002701   0.013349   0.007124  -0.000010   0.331998  -0.113369
     4  H    0.000731  -0.011436  -0.006953   0.002259   0.405257   0.109122
     5  H    0.000232   0.007952   0.010485  -0.002349  -0.015769  -0.120080
     6  H   -0.029069  -0.000554  -0.045198   0.001085  -0.013823   0.434809
     7  H    0.464260   0.001154  -0.012087   0.000480   0.013329   0.474689
     8  H    0.001154   0.316732  -0.001680  -0.011253   0.003098  -0.014255
     9  H   -0.012087  -0.001680   0.452326  -0.003105   0.012114   0.377720
    10  H    0.000480  -0.011253  -0.003105   0.402738   0.025105   0.038003
    11  C    0.013329   0.003098   0.012114   0.025105   5.500243   0.426191
    12  C    0.474689  -0.014255   0.377720   0.038003   0.426191   6.332727
    13  O    0.008924   0.118686  -0.022262   0.007408   0.265218   0.042430
             13
     1  C   -0.132876
     2  O   -0.130574
     3  H   -0.068356
     4  H   -0.049079
     5  H    0.017388
     6  H    0.016565
     7  H    0.008924
     8  H    0.118686
     9  H   -0.022262
    10  H    0.007408
    11  C    0.265218
    12  C    0.042430
    13  O    8.522455
 Mulliken atomic charges:
              1
     1  C    0.412363
     2  O   -0.725306
     3  H    0.116587
     4  H    0.132158
     5  H    0.216311
     6  H    0.142909
     7  H    0.219774
     8  H    0.449375
     9  H    0.230117
    10  H    0.364584
    11  C   -0.271708
    12  C   -0.691235
    13  O   -0.595927
 Sum of Mulliken atomic charges =   0.00000
 Mulliken charges with hydrogens summed into heavy atoms:
              1
     1  C    0.628674
     2  O    0.088653
    11  C   -0.022964
    12  C   -0.098435
    13  O   -0.595927
 Sum of Mulliken charges with hydrogens summed into heavy atoms =   0.00000
 APT atomic charges:
              1
     1  C    0.664327
     2  O   -0.721855
     3  H   -0.034938
     4  H   -0.060254
     5  H    0.000990
     6  H    0.020721
     7  H    0.039589
     8  H    0.404011
     9  H    0.081048
    10  H    0.257869
    11  C    0.332426
    12  C   -0.159168
    13  O   -0.824766
 Sum of APT charges=   0.00000
 APT Atomic charges with hydrogens summed into heavy atoms:
              1
     1  C    0.665317
     2  O   -0.059975
     3  H    0.000000
     4  H    0.000000
     5  H    0.000000
     6  H    0.000000
     7  H    0.000000
     8  H    0.000000
     9  H    0.000000
    10  H    0.000000
    11  C    0.237234
    12  C   -0.017809
    13  O   -0.824766
 Sum of APT charges=   0.00000
 Electronic spatial extent (au):  <R**2>=            587.8864
 Charge=              0.0000 electrons
 Dipole moment (field-independent basis, Debye):
    X=             -3.1834    Y=             -1.8942    Z=             -1.8221  Tot=              4.1283
 Quadrupole moment (field-independent basis, Debye-Ang):
   XX=            -39.8957   YY=            -29.8670   ZZ=            -32.5676
   XY=             -2.9572   XZ=             -2.3431   YZ=             -4.9599
 Traceless Quadrupole moment (field-independent basis, Debye-Ang):
   XX=             -5.7856   YY=              4.2431   ZZ=              1.5425
   XY=             -2.9572   XZ=             -2.3431   YZ=             -4.9599
 Octapole moment (field-independent basis, Debye-Ang**2):
  XXX=            -73.7226  YYY=            -27.5776  ZZZ=            -46.8185  XYY=            -19.9448
  XXY=            -14.7147  XXZ=            -26.8333  XZZ=            -16.1959  YZZ=            -21.5245
  YYZ=            -14.1666  XYZ=             -1.8061
 Hexadecapole moment (field-independent basis, Debye-Ang**3):
 XXXX=           -334.4577 YYYY=           -146.6609 ZZZZ=           -276.4012 XXXY=              0.6663
 XXXZ=            -49.4264 YYYX=             11.5135 YYYZ=             -0.7391 ZZZX=            -17.5099
 ZZZY=            -33.4065 XXYY=            -74.6714 XXZZ=           -101.9862 YYZZ=            -66.3686
 XXYZ=             -2.6162 YYXZ=            -11.7192 ZZXY=              4.8138
 N-N= 1.894528285830D+02 E-N=-1.009333885261D+03  KE= 2.671231128692D+02
  Exact polarizability:  62.096  -3.407  47.116   0.848  -3.285  62.805
 Approx polarizability: 105.596   3.229  62.426  10.731  -0.789  93.616
 PrsmSu:  requested number of processors reduced to:  10 ShMem   1 Linda.
 PrsmSu:  requested number of processors reduced to:  10 ShMem   1 Linda.
 Calling FoFJK, ICntrl=    100127 FMM=F ISym2X=0 I1Cent= 0 IOpClX= 0 NMat=1 NMatS=1 NMatT=0.
 CoulSu:  requested number of processors reduced to:  10 ShMem   1 Linda.
 CalDSu:  requested number of processors reduced to:  23 ShMem   1 Linda.
 -------------------------------------------------------------------
 Center     Atomic                   Forces (Hartrees/Bohr)
 Number     Number              X              Y              Z
 -------------------------------------------------------------------
      1        6           0.011100060    0.006960828    0.005487119
      2        8          -0.000625654    0.006323433   -0.009675011
      3        1           0.008936227    0.010312940   -0.019987211
      4        1           0.004025057   -0.020696491    0.003431992
      5        1          -0.008139798   -0.008460667    0.001976091
      6        1          -0.014527384   -0.000750143   -0.017528870
      7        1           0.011151584    0.009176269   -0.001998433
      8        1           0.000698800    0.001291604    0.002286286
      9        1          -0.008443875    0.005286118    0.014091379
     10        1          -0.000492752   -0.006969441    0.005370196
     11        6          -0.006054119    0.021101379    0.032753505
     12        6           0.010725960   -0.012000485    0.004639791
     13        8          -0.008354105   -0.011575343   -0.020846834
 -------------------------------------------------------------------
 Cartesian Forces:  Max     0.032753505 RMS     0.011443805
 -----------------------------------------------------------------------------------------------
                       Internal Coordinate Forces (Hartree/Bohr or radian)
  Cent   Atom   N1       Length/X         N2         Alpha/Y        N3         Beta/Z          J
 -----------------------------------------------------------------------------------------------
      1  C 
      2  O        1  -0.002019(     1)
      3  H        1   0.018422(     2)      2   0.047207(    13)
      4  H        1   0.016357(     3)      2  -0.018796(    14)      3   0.034346(    24)     0
      5  H        1   0.011898(     4)      2   0.000795(    15)      4  -0.017640(    25)     0
      6  H        1   0.016773(     5)      2   0.040386(    16)      5  -0.037997(    26)     0
      7  H        1   0.010874(     6)      2  -0.000885(    17)      5   0.038138(    27)     0
      8  H        2   0.000106(     7)      1   0.004880(    18)      5   0.018832(    28)     0
      9  H        1   0.012627(     8)      2  -0.043562(    19)      8  -0.016703(    29)     0
     10  H        2   0.008723(     9)      1   0.002006(    20)      5  -0.001359(    30)     0
     11  C        1  -0.017712(    10)      2  -0.022817(    21)     10   0.000455(    31)     0
     12  C        1  -0.015467(    11)     11  -0.014586(    22)      2  -0.003023(    32)     0
     13  O       11  -0.025148(    12)      1   0.002799(    23)     12  -0.005898(    33)     0
 -----------------------------------------------------------------------------------------------
 Internal  Forces:  Max     0.047207380 RMS     0.020978177

 GradGradGradGradGradGradGradGradGradGradGradGradGradGradGradGradGradGrad
 Berny optimization.
 Search for a saddle point.
 Step number   1 out of a maximum of   42
 All quantities printed in internal units (Hartrees-Bohrs-Radians)
 Swaping is turned off.
 Second derivative matrix not updated -- analytic derivatives used.
 ITU=  0
     Eigenvalues ---   -0.09582  -0.03421  -0.00086   0.02060   0.02525
     Eigenvalues ---    0.03814   0.04695   0.05310   0.06390   0.06759
     Eigenvalues ---    0.06970   0.09095   0.10564   0.13228   0.14857
     Eigenvalues ---    0.20732   0.27152   0.33437   0.39720   0.41790
     Eigenvalues ---    0.48796   0.51760   0.55832   0.91884   1.28928
     Eigenvalues ---    1.61048   2.03213   3.58856   4.43641   5.88976
     Eigenvalues ---    8.39811  23.37807
 Eigenvectors required to have negative eigenvalues:
                          A5        A4        D3        D6        A7
   1                    0.51301  -0.47578  -0.44635   0.41231  -0.26050
                          D5        A3        A11       D7        A8
   1                   -0.16733  -0.09626  -0.08190  -0.07060   0.06380
 RFO step:  Lambda0=1.452815834D-05 Lambda=-3.47102564D-02.
 Linear search not attempted -- option 19 set.
 Maximum step size (   0.300) exceeded in Quadratic search.
    -- Step size scaled by   0.329
 Variable       Old X    -DE/DX   Delta X   Delta X   Delta X     New X
                                 (Linear)    (Quad)   (Total)
    B1        3.99013   0.01842   0.00000   0.07531   0.07531   4.06543
    B2        4.03339   0.01636   0.00000  -0.00530  -0.00530   4.02810
    B3        2.02201   0.01190   0.00000   0.00501   0.00501   2.02701
    B4        3.88941   0.01677   0.00000   0.00955   0.00955   3.89896
    B5        4.01241   0.01087   0.00000   0.00643   0.00643   4.01884
    B6        1.98029   0.00011   0.00000  -0.11029  -0.11029   1.86999
    B7        3.98890   0.01263   0.00000   0.01541   0.01541   4.00430
    B8        1.81414   0.00872   0.00000   0.00306   0.00306   1.81720
    B9        2.80611  -0.01771   0.00000  -0.02636  -0.02636   2.77974
   B10        2.78832  -0.01547   0.00000   0.00335   0.00335   2.79167
   B11        2.70231  -0.02515   0.00000  -0.02715  -0.02715   2.67516
    A1        2.15027   0.04721   0.00000   0.07503   0.07503   2.22530
    A2        1.64516  -0.01880   0.00000  -0.03706  -0.03706   1.60809
    A3        1.37102   0.00079   0.00000  -0.11380  -0.11380   1.25722
    A4        2.11070   0.04039   0.00000   0.05427   0.05427   2.16497
    A5        1.77586  -0.00089   0.00000  -0.00547  -0.00547   1.77039
    A6        1.22939   0.00488   0.00000   0.01778   0.01778   1.24716
    A7        1.27901  -0.04356   0.00000   0.03737   0.03737   1.31638
    A8        2.10166   0.00201   0.00000   0.06588   0.06588   2.16754
    A9        1.70697  -0.02282   0.00000   0.06226   0.06226   1.76923
   A10        2.11641  -0.01459   0.00000   0.01003   0.01003   2.12644
   A11        1.71198   0.00280   0.00000  -0.11044  -0.11044   1.60153
    D1        0.71886   0.03435   0.00000  -0.07643  -0.07643   0.64243
    D2        1.63127  -0.01764   0.00000  -0.00895  -0.00895   1.62232
    D3        1.63927  -0.03800   0.00000   0.00254   0.00254   1.64181
    D4        2.50727   0.03814   0.00000  -0.01108  -0.01108   2.49619
    D5        2.53571   0.01883   0.00000   0.05868   0.05868   2.59439
    D6       -1.94231  -0.01670   0.00000   0.01317   0.01317  -1.92913
    D7        0.79154  -0.00136   0.00000   0.05519   0.05519   0.84673
    D8       -1.32086   0.00046   0.00000   0.07186   0.07186  -1.24900
    D9        1.83928  -0.00302   0.00000   0.07399   0.07399   1.91328
   D10        1.19792  -0.00590   0.00000  -0.04218  -0.04218   1.15574
         Item               Value     Threshold  Converged?
 Maximum Force            0.047207     0.000450     NO 
 RMS     Force            0.021300     0.000300     NO 
 Maximum Displacement     0.113800     0.001800     NO 
 RMS     Displacement     0.053033     0.001200     NO 
 Predicted change in Energy=-4.479246D-03
 GradGradGradGradGradGradGradGradGradGradGradGradGradGradGradGradGradGrad

 ---------------------------------------------------------------------------------------------------
                            Z-MATRIX (ANGSTROMS AND DEGREES)
   CD    Cent   Atom    N1       Length/X        N2       Alpha/Y        N3        Beta/Z          J
 ---------------------------------------------------------------------------------------------------
      1      1  C 
      2      2  O        1   2.285847(     1)
      3      3  H        1   2.151335(     2)      2  127.500(    13)
      4      4  H        1   2.131578(     3)      2   92.137(    14)      3   36.809(    24)      0
      5      5  H        1   1.072649(     4)      2   72.033(    15)      4   92.952(    25)      0
      6      6  H        1   2.063240(     5)      2  124.044(    16)      5   94.069(    26)      0
      7      7  H        1   2.126679(     6)      2  101.436(    17)      5  143.021(    27)      0
      8      8  H        2   0.989558(     7)      1   71.457(    18)      5  148.648(    28)      0
      9      9  H        1   2.118987(     8)      2   75.423(    19)      8 -110.531(    29)      0
     10     10  H        2   0.961621(     9)      1  124.191(    20)      5   48.514(    30)      0
     11     11  C        1   1.470977(    10)      2  101.370(    21)     10  -71.562(    31)      0
     12     12  C        1   1.477290(    11)     11  121.836(    22)      2  109.623(    32)      0
     13     13  O       11   1.415634(    12)      1   91.761(    23)     12   66.219(    33)      0
 ---------------------------------------------------------------------------------------------------
                         Z-Matrix orientation:                         
 ---------------------------------------------------------------------
 Center     Atomic      Atomic             Coordinates (Angstroms)
 Number     Number       Type             X           Y           Z
 ---------------------------------------------------------------------
      1          6           0        0.000000    0.000000    0.000000
      2          8           0        0.000000    0.000000    2.285847
      3          1           0        1.706761    0.000000   -1.309660
      4          1           0        1.705445   -1.276231   -0.079482
      5          1           0       -0.652591   -0.784360    0.330877
      6          1           0       -1.233334    1.183936   -1.155050
      7          1           0        0.101168    2.082002   -0.421659
      8          1           0        0.887673    0.303697    1.971156
      9          1           0       -1.302202    1.584284    0.533308
     10          1           0        0.121052   -0.786161    2.826229
     11          6           0        1.421561   -0.242586   -0.289983
     12          6           0       -0.636121    1.307804   -0.259585
     13          8           0        1.826927    0.674563    0.709284
 ---------------------------------------------------------------------
                    Distance matrix (angstroms):
                    1          2          3          4          5
     1  C    0.000000
     2  O    2.285847   0.000000
     3  H    2.151335   3.980038   0.000000
     4  H    2.131578   3.183094   1.772598   0.000000
     5  H    1.072649   2.205222   2.978779   2.443494   0.000000
     6  H    2.063240   3.842211   3.173290   3.980665   2.533659
     7  H    2.126679   3.416951   2.775105   3.737448   3.057858
     8  H    2.183037   0.989558   3.395127   2.714781   2.499359
     9  H    2.118987   2.697606   3.867861   4.195712   2.464437
    10  H    2.936030   0.961621   4.498677   3.345687   2.612529
    11  C    1.470977   2.952047   1.086245   1.092393   2.231836
    12  C    1.477290   2.931590   2.881337   3.491791   2.173951
    13  O    2.072627   2.505643   2.132044   2.107726   2.901665
                    6          7          8          9         10
     6  H    0.000000
     7  H    1.767846   0.000000
     8  H    3.879002   3.083265   0.000000
     9  H    1.736541   1.768936   2.915967   0.000000
    10  H    4.643945   4.333074   1.583240   3.591956   0.000000
    11  C    3.135566   2.676655   2.386674   3.381442   3.420171
    12  C    1.083451   1.081317   2.882079   1.071813   3.805291
    13  O    3.619448   2.497631   1.616187   3.263435   3.086289
                   11         12         13
    11  C    0.000000
    12  C    2.576565   0.000000
    13  O    1.415634   2.721453   0.000000
 Symmetry turned off by external request.
 Stoichiometry    C3H8O2
 Framework group  C1[X(C3H8O2)]
 Deg. of freedom    33
 Full point group                 C1      NOp   1
 Rotational constants (GHZ):      5.1000821      4.5553254      3.1061006
 Standard basis: 6-31++G(d,p) (6D, 7F)
 The following finite field(s) will be applied:
 An electric field of              0.0000  0.0000 -0.0050
 Integral buffers will be    131072 words long.
 Raffenetti 2 integral format.
 Two-electron integral symmetry is turned off.
   143 basis functions,   224 primitive gaussians,   143 cartesian basis functions
    21 alpha electrons       21 beta electrons
       nuclear repulsion energy       190.3912172274 Hartrees.
 NAtoms=   13 NActive=   13 NUniq=   13 SFac= 1.00D+00 NAtFMM=   50 NAOKFM=F Big=F
 One-electron integrals computed using PRISM.
 PrsmSu:  requested number of processors reduced to:  10 ShMem   1 Linda.
 NBasis=   143 RedAO= T  NBF=   143
 NBsUse=   143 1.00D-06 NBFU=   143
 The nuclear repulsion energy is now       190.1705032501 hartrees.
 Initial guess read from the read-write file.
 B after Tr=     0.000000    0.000000    0.000000
         Rot=    1.000000    0.000000    0.000000    0.000000 Ang=   0.00 deg.
 Harris functional with IExCor=  402 diagonalized for initial guess.
 ExpMin= 3.60D-02 ExpMax= 5.48D+03 ExpMxC= 8.25D+02 IAcc=3 IRadAn=         0 AccDes= 0.00D+00
 HarFok:  IExCor=  402 AccDes= 0.00D+00 IRadAn=         0 IDoV= 1
 ScaDFX=  1.000000  1.000000  1.000000  1.000000
 FoFCou: FMM=F IPFlag=           0 FMFlag=      100000 FMFlg1=           0
         NFxFlg=           0 DoJE=T BraDBF=F KetDBF=T FulRan=T
         Omega=  0.000000  0.000000  1.000000  0.000000  0.000000 ICntrl=     500 IOpCl=  0
         NMat0=    1 NMatS0=    1 NMatT0=    0 NMatD0=    1 NMtDS0=    0 NMtDT0=    0
         I1Cent=           4 NGrid=           0.
 Symmetry not used in FoFCou.
 Requested convergence on RMS density matrix=1.00D-08 within 128 cycles.
 Requested convergence on MAX density matrix=1.00D-06.
 Requested convergence on             energy=1.00D-06.
 No special actions if energy rises.
 SCF Done:  E(RB3LYP) =  -269.489043430     A.U. after   13 cycles
             Convg  =    0.6170D-08             -V/T =  2.0088
 Range of M.O.s used for correlation:     1   143
 NBasis=   143 NAE=    21 NBE=    21 NFC=     0 NFV=     0
 NROrb=    143 NOA=    21 NOB=    21 NVA=   122 NVB=   122

 **** Warning!!: The largest alpha MO coefficient is  0.51417447D+02

 PrsmSu:  requested number of processors reduced to:  10 ShMem   1 Linda.
 PrsmSu:  requested number of processors reduced to:  17 ShMem   1 Linda.
 Symmetrizing basis deriv contribution to polar:
 IMax=3 JMax=2 DiffMx= 0.00D+00
 G2DrvN: will do     3 centers at a time, making    5 passes doing MaxLOS=2.
 Estimated number of processors is:   15
 Calling FoFCou, ICntrl=  3107 FMM=F I1Cent=   0 AccDes= 0.00D+00.
 CoulSu:  requested number of processors reduced to:  15 ShMem   1 Linda.
 Calling FoFCou, ICntrl=  3107 FMM=F I1Cent=   0 AccDes= 0.00D+00.
 CoulSu:  requested number of processors reduced to:  15 ShMem   1 Linda.
 Calling FoFCou, ICntrl=  3107 FMM=F I1Cent=   0 AccDes= 0.00D+00.
 CoulSu:  requested number of processors reduced to:  15 ShMem   1 Linda.
 Calling FoFCou, ICntrl=  3107 FMM=F I1Cent=   0 AccDes= 0.00D+00.
 CoulSu:  requested number of processors reduced to:  15 ShMem   1 Linda.
 Calling FoFCou, ICntrl=  3107 FMM=F I1Cent=   0 AccDes= 0.00D+00.
 CoulSu:  requested number of processors reduced to:  15 ShMem   1 Linda.
 FoFDir/FoFCou used for L=0 through L=2.
 End of G2Drv Frequency-dependent properties file   721 does not exist.
 End of G2Drv Frequency-dependent properties file   722 does not exist.
          IDoAtm=1111111111111
          Differentiating once with respect to electric field.
                with respect to dipole field.
          Differentiating once with respect to nuclear coordinates.
 PrRfSu:  requested number of processors reduced to:  16 ShMem   1 Linda.
 CalDSu:  requested number of processors reduced to:  22 ShMem   1 Linda.
 PrRfSu:  requested number of processors reduced to:  16 ShMem   1 Linda.
 CalDSu:  requested number of processors reduced to:  22 ShMem   1 Linda.
          There are    42 degrees of freedom in the 1st order CPHF.  IDoFFX=5.
     42 vectors produced by pass  0 Test12= 6.10D-15 2.38D-09 XBig12= 1.01D+02 7.19D+00.
 AX will form    21 AO Fock derivatives at one time.
 PrRfSu:  requested number of processors reduced to:  16 ShMem   1 Linda.
 CalDSu:  requested number of processors reduced to:  22 ShMem   1 Linda.
 PrRfSu:  requested number of processors reduced to:  16 ShMem   1 Linda.
 CalDSu:  requested number of processors reduced to:  22 ShMem   1 Linda.
     39 vectors produced by pass  1 Test12= 6.10D-15 2.38D-09 XBig12= 4.30D+01 1.21D+00.
 PrRfSu:  requested number of processors reduced to:  15 ShMem   1 Linda.
 CalDSu:  requested number of processors reduced to:  19 ShMem   1 Linda.
     39 vectors produced by pass  2 Test12= 6.10D-15 2.38D-09 XBig12= 4.63D-01 1.25D-01.
 PrRfSu:  requested number of processors reduced to:  15 ShMem   1 Linda.
 CalDSu:  requested number of processors reduced to:  19 ShMem   1 Linda.
     39 vectors produced by pass  3 Test12= 6.10D-15 2.38D-09 XBig12= 1.50D-03 8.24D-03.
 PrRfSu:  requested number of processors reduced to:  15 ShMem   1 Linda.
 CalDSu:  requested number of processors reduced to:  19 ShMem   1 Linda.
     39 vectors produced by pass  4 Test12= 6.10D-15 2.38D-09 XBig12= 2.24D-06 1.87D-04.
 PrRfSu:  requested number of processors reduced to:  15 ShMem   1 Linda.
 CalDSu:  requested number of processors reduced to:  19 ShMem   1 Linda.
     24 vectors produced by pass  5 Test12= 6.10D-15 2.38D-09 XBig12= 1.78D-09 7.56D-06.
 PrRfSu:  requested number of processors reduced to:  16 ShMem   1 Linda.
 CalDSu:  requested number of processors reduced to:  21 ShMem   1 Linda.
      3 vectors produced by pass  6 Test12= 6.10D-15 2.38D-09 XBig12= 1.34D-12 2.08D-07.
      3 vectors produced by pass  7 Test12= 6.10D-15 2.38D-09 XBig12= 1.10D-14 2.50D-08.
      1 vectors produced by pass  8 Test12= 6.10D-15 2.38D-09 XBig12= 9.72D-17 2.61D-09.
 Inverted reduced A of dimension   229 with in-core refinement.
 Isotropic polarizability for W=    0.000000       55.50 Bohr**3.
 End of Minotr Frequency-dependent properties file   721 does not exist.
 End of Minotr Frequency-dependent properties file   722 does not exist.
 PrsmSu:  requested number of processors reduced to:  10 ShMem   1 Linda.
 PrsmSu:  requested number of processors reduced to:  10 ShMem   1 Linda.
 Calling FoFJK, ICntrl=    100127 FMM=F ISym2X=0 I1Cent= 0 IOpClX= 0 NMat=1 NMatS=1 NMatT=0.
 CoulSu:  requested number of processors reduced to:  10 ShMem   1 Linda.
 CalDSu:  requested number of processors reduced to:  23 ShMem   1 Linda.
 -------------------------------------------------------------------
 Center     Atomic                   Forces (Hartrees/Bohr)
 Number     Number              X              Y              Z
 -------------------------------------------------------------------
      1        6           0.008394793    0.008870201   -0.006294306
      2        8          -0.011354594    0.000122506    0.010437471
      3        1           0.006327384    0.005834556   -0.009847447
      4        1           0.002767643   -0.005598869   -0.000396845
      5        1          -0.003476892   -0.006161095    0.003809773
      6        1          -0.009492900   -0.000844508   -0.010973784
      7        1           0.003483561    0.004487409   -0.000630770
      8        1           0.009735375    0.003938398    0.000481674
      9        1          -0.008343267    0.003984394    0.011380841
     10        1           0.000883686   -0.003422889    0.005271109
     11        6          -0.002391175    0.007395519    0.014886319
     12        6           0.010796382   -0.005578112   -0.005479984
     13        8          -0.007329995   -0.013027508   -0.012644051
 -------------------------------------------------------------------
 Cartesian Forces:  Max     0.014886319 RMS     0.007432090
 -----------------------------------------------------------------------------------------------
                       Internal Coordinate Forces (Hartree/Bohr or radian)
  Cent   Atom   N1       Length/X         N2         Alpha/Y        N3         Beta/Z          J
 -----------------------------------------------------------------------------------------------
      1  C 
      2  O        1   0.016190(     1)
      3  H        1   0.011015(     2)      2   0.016101(    13)
      4  H        1   0.005581(     3)      2   0.000761(    14)      3   0.018681(    24)     0
      5  H        1   0.007796(     4)      2  -0.002994(    15)      4   0.007312(    25)     0
      6  H        1   0.011333(     5)      2   0.021782(    16)      5  -0.023207(    26)     0
      7  H        1   0.004684(     6)      2  -0.001222(    17)      5   0.012848(    27)     0
      8  H        2   0.009789(     7)      1   0.007090(    18)      5   0.016193(    28)     0
      9  H        1   0.010971(     8)      2  -0.035664(    19)      8  -0.015174(    29)     0
     10  H        2   0.005872(     9)      1   0.004331(    20)      5  -0.036308(    30)     0
     11  C        1  -0.008908(    10)      2  -0.019476(    21)     10   0.036838(    31)     0
     12  C        1  -0.008624(    11)     11  -0.025909(    22)      2   0.007090(    32)     0
     13  O       11  -0.019464(    12)      1  -0.004937(    23)     12   0.002744(    33)     0
 -----------------------------------------------------------------------------------------------
 Internal  Forces:  Max     0.036838014 RMS     0.016423677

 GradGradGradGradGradGradGradGradGradGradGradGradGradGradGradGradGradGrad
 Berny optimization.
 Search for a saddle point.
 Step number   2 out of a maximum of   42
 All quantities printed in internal units (Hartrees-Bohrs-Radians)
 Swaping is turned off.
 Second derivative matrix not updated -- analytic derivatives used.
 ITU=  0  0
     Eigenvalues ---   -0.05909  -0.03405   0.00619   0.01629   0.02002
     Eigenvalues ---    0.04240   0.04774   0.05378   0.06869   0.07097
     Eigenvalues ---    0.08437   0.09621   0.10045   0.15317   0.16991
     Eigenvalues ---    0.22493   0.27254   0.36781   0.39071   0.40301
     Eigenvalues ---    0.47594   0.51038   0.55234   0.86076   1.29126
     Eigenvalues ---    1.73217   2.04696   3.47913   4.07161   5.18691
     Eigenvalues ---    8.35359  21.35751
 Eigenvectors required to have negative eigenvalues:
                          A5        D3        A4        D6        A11
   1                    0.44217  -0.42779  -0.37313   0.30770  -0.30522
                          A7        A3        A9        A8        D5
   1                   -0.24755  -0.23715   0.17778   0.15890  -0.15830
 RFO step:  Lambda0=1.685723429D-03 Lambda=-3.55372139D-02.
 Linear search not attempted -- option 19 set.
 Maximum step size (   0.300) exceeded in Quadratic search.
    -- Step size scaled by   0.386
 Variable       Old X    -DE/DX   Delta X   Delta X   Delta X     New X
                                 (Linear)    (Quad)   (Total)
    B1        4.06543   0.01101   0.00000   0.04946   0.04946   4.11489
    B2        4.02810   0.00558   0.00000   0.02035   0.02035   4.04845
    B3        2.02701   0.00780   0.00000   0.00201   0.00201   2.02903
    B4        3.89896   0.01133   0.00000   0.01402   0.01402   3.91297
    B5        4.01884   0.00468   0.00000   0.00783   0.00783   4.02667
    B6        1.86999   0.00979   0.00000  -0.01432  -0.01432   1.85567
    B7        4.00430   0.01097   0.00000   0.02192   0.02192   4.02623
    B8        1.81720   0.00587   0.00000   0.00298   0.00298   1.82018
    B9        2.77974  -0.00891   0.00000  -0.01272  -0.01272   2.76703
   B10        2.79167  -0.00862   0.00000   0.00937   0.00937   2.80104
   B11        2.67516  -0.01946   0.00000  -0.01458  -0.01458   2.66058
    A1        2.22530   0.01610   0.00000   0.04409   0.04409   2.26939
    A2        1.60809   0.00076   0.00000   0.06950   0.06950   1.67759
    A3        1.25722  -0.00299   0.00000  -0.06781  -0.06781   1.18941
    A4        2.16497   0.02178   0.00000   0.08865   0.08865   2.25362
    A5        1.77039  -0.00122   0.00000  -0.10090  -0.10090   1.66949
    A6        1.24716   0.00709   0.00000   0.01133   0.01133   1.25850
    A7        1.31638  -0.03566   0.00000   0.05336   0.05336   1.36974
    A8        2.16754   0.00433   0.00000   0.05962   0.05962   2.22715
    A9        1.76923  -0.01948   0.00000   0.07420   0.07420   1.84344
   A10        2.12644  -0.02591   0.00000   0.00421   0.00421   2.13065
   A11        1.60153  -0.00494   0.00000  -0.09006  -0.09006   1.51147
    D1        0.64243   0.01868   0.00000   0.04267   0.04267   0.68510
    D2        1.62232   0.00731   0.00000  -0.01734  -0.01734   1.60498
    D3        1.64181  -0.02321   0.00000   0.10444   0.10444   1.74625
    D4        2.49619   0.01285   0.00000  -0.00821  -0.00821   2.48799
    D5        2.59439   0.01619   0.00000  -0.00172  -0.00172   2.59267
    D6       -1.92913  -0.01517   0.00000  -0.10860  -0.10860  -2.03773
    D7        0.84673  -0.03631   0.00000  -0.00146  -0.00146   0.84527
    D8       -1.24900   0.03684   0.00000   0.02091   0.02091  -1.22809
    D9        1.91328   0.00709   0.00000   0.05386   0.05386   1.96714
   D10        1.15574   0.00274   0.00000   0.08894   0.08894   1.24468
         Item               Value     Threshold  Converged?
 Maximum Force            0.036838     0.000450     NO 
 RMS     Force            0.016431     0.000300     NO 
 Maximum Displacement     0.108596     0.001800     NO 
 RMS     Displacement     0.053033     0.001200     NO 
 Predicted change in Energy=-4.150679D-03
 GradGradGradGradGradGradGradGradGradGradGradGradGradGradGradGradGradGrad

 ---------------------------------------------------------------------------------------------------
                            Z-MATRIX (ANGSTROMS AND DEGREES)
   CD    Cent   Atom    N1       Length/X        N2       Alpha/Y        N3        Beta/Z          J
 ---------------------------------------------------------------------------------------------------
      1      1  C 
      2      2  O        1   2.285847(     1)
      3      3  H        1   2.177507(     2)      2  130.026(    13)
      4      4  H        1   2.142348(     3)      2   96.119(    14)      3   39.253(    24)      0
      5      5  H        1   1.073714(     4)      2   68.148(    15)      4   91.959(    25)      0
      6      6  H        1   2.070656(     5)      2  129.123(    16)      5  100.053(    26)      0
      7      7  H        1   2.130821(     6)      2   95.655(    17)      5  142.551(    27)      0
      8      8  H        2   0.981980(     7)      1   72.107(    18)      5  148.549(    28)      0
      9      9  H        1   2.130588(     8)      2   78.481(    19)      8 -116.753(    29)      0
     10     10  H        2   0.963200(     9)      1  127.606(    20)      5   48.430(    30)      0
     11     11  C        1   1.464248(    10)      2  105.621(    21)     10  -70.365(    31)      0
     12     12  C        1   1.482246(    11)     11  122.077(    22)      2  112.709(    32)      0
     13     13  O       11   1.407920(    12)      1   86.601(    23)     12   71.315(    33)      0
 ---------------------------------------------------------------------------------------------------
                         Z-Matrix orientation:                         
 ---------------------------------------------------------------------
 Center     Atomic      Atomic             Coordinates (Angstroms)
 Number     Number       Type             X           Y           Z
 ---------------------------------------------------------------------
      1          6           0        0.000000    0.000000    0.000000
      2          8           0        0.000000    0.000000    2.285847
      3          1           0        1.667423    0.000000   -1.400441
      4          1           0        1.649490   -1.347847   -0.228361
      5          1           0       -0.656582   -0.749695    0.399649
      6          1           0       -1.005166    1.253062   -1.306558
      7          1           0        0.139162    2.115881   -0.209949
      8          1           0        0.892024    0.278475    1.984136
      9          1           0       -1.452597    1.499444    0.425479
     10          1           0        0.095881   -0.757019    2.873624
     11          6           0        1.377178   -0.303222   -0.394286
     12          6           0       -0.618730    1.322577   -0.254987
     13          8           0        1.775765    0.560596    0.643590
 ---------------------------------------------------------------------
                    Distance matrix (angstroms):
                    1          2          3          4          5
     1  C    0.000000
     2  O    2.285847   0.000000
     3  H    2.177507   4.045864   0.000000
     4  H    2.142348   3.295261   1.786277   0.000000
     5  H    1.073714   2.133281   3.033705   2.463767   0.000000
     6  H    2.070656   3.935212   2.953255   3.869682   2.653995
     7  H    2.130821   3.274953   2.868764   3.778735   3.035844
     8  H    2.193183   0.981980   3.483411   2.848476   2.442522
     9  H    2.130588   2.796308   3.913674   4.261164   2.385987
    10  H    2.973212   0.963200   4.616325   3.519245   2.585887
    11  C    1.464248   3.028477   1.090199   1.092212   2.228419
    12  C    1.482246   2.930507   2.878848   3.503811   2.173544
    13  O    1.970233   2.482865   2.122279   2.101999   2.773569
                    6          7          8          9         10
     6  H    0.000000
     7  H    1.804576   0.000000
     8  H    3.921456   2.959202   0.000000
     9  H    1.805783   1.821390   3.068782   0.000000
    10  H    4.767248   4.214719   1.580279   3.671897   0.000000
    11  C    2.988281   2.723733   2.496124   3.453874   3.539334
    12  C    1.122483   1.098071   2.895893   1.090711   3.824081
    13  O    3.466434   2.413692   1.630231   3.369173   3.087260
                   11         12         13
    11  C    0.000000
    12  C    2.578036   0.000000
    13  O    1.407920   2.668643   0.000000
 Symmetry turned off by external request.
 Stoichiometry    C3H8O2
 Framework group  C1[X(C3H8O2)]
 Deg. of freedom    33
 Full point group                 C1      NOp   1
 Rotational constants (GHZ):      5.3026181      4.4932928      3.0900660
 Standard basis: 6-31++G(d,p) (6D, 7F)
 The following finite field(s) will be applied:
 An electric field of              0.0000  0.0000 -0.0050
 Integral buffers will be    131072 words long.
 Raffenetti 2 integral format.
 Two-electron integral symmetry is turned off.
   143 basis functions,   224 primitive gaussians,   143 cartesian basis functions
    21 alpha electrons       21 beta electrons
       nuclear repulsion energy       190.9481801436 Hartrees.
 NAtoms=   13 NActive=   13 NUniq=   13 SFac= 1.00D+00 NAtFMM=   50 NAOKFM=F Big=F
 One-electron integrals computed using PRISM.
 PrsmSu:  requested number of processors reduced to:  10 ShMem   1 Linda.
 NBasis=   143 RedAO= T  NBF=   143
 NBsUse=   143 1.00D-06 NBFU=   143
 The nuclear repulsion energy is now       190.7395785928 hartrees.
 Initial guess read from the read-write file.
 B after Tr=     0.000000    0.000000    0.000000
         Rot=    1.000000    0.000000    0.000000    0.000000 Ang=   0.00 deg.
 Harris functional with IExCor=  402 diagonalized for initial guess.
 ExpMin= 3.60D-02 ExpMax= 5.48D+03 ExpMxC= 8.25D+02 IAcc=3 IRadAn=         0 AccDes= 0.00D+00
 HarFok:  IExCor=  402 AccDes= 0.00D+00 IRadAn=         0 IDoV= 1
 ScaDFX=  1.000000  1.000000  1.000000  1.000000
 FoFCou: FMM=F IPFlag=           0 FMFlag=      100000 FMFlg1=           0
         NFxFlg=           0 DoJE=T BraDBF=F KetDBF=T FulRan=T
         Omega=  0.000000  0.000000  1.000000  0.000000  0.000000 ICntrl=     500 IOpCl=  0
         NMat0=    1 NMatS0=    1 NMatT0=    0 NMatD0=    1 NMtDS0=    0 NMtDT0=    0
         I1Cent=           4 NGrid=           0.
 Symmetry not used in FoFCou.
 Requested convergence on RMS density matrix=1.00D-08 within 128 cycles.
 Requested convergence on MAX density matrix=1.00D-06.
 Requested convergence on             energy=1.00D-06.
 No special actions if energy rises.
 SCF Done:  E(RB3LYP) =  -269.491920588     A.U. after   13 cycles
             Convg  =    0.5620D-08             -V/T =  2.0090
 Range of M.O.s used for correlation:     1   143
 NBasis=   143 NAE=    21 NBE=    21 NFC=     0 NFV=     0
 NROrb=    143 NOA=    21 NOB=    21 NVA=   122 NVB=   122

 **** Warning!!: The largest alpha MO coefficient is  0.47581599D+02

 PrsmSu:  requested number of processors reduced to:  10 ShMem   1 Linda.
 PrsmSu:  requested number of processors reduced to:  17 ShMem   1 Linda.
 Symmetrizing basis deriv contribution to polar:
 IMax=3 JMax=2 DiffMx= 0.00D+00
 G2DrvN: will do     3 centers at a time, making    5 passes doing MaxLOS=2.
 Estimated number of processors is:   15
 Calling FoFCou, ICntrl=  3107 FMM=F I1Cent=   0 AccDes= 0.00D+00.
 CoulSu:  requested number of processors reduced to:  15 ShMem   1 Linda.
 Calling FoFCou, ICntrl=  3107 FMM=F I1Cent=   0 AccDes= 0.00D+00.
 CoulSu:  requested number of processors reduced to:  15 ShMem   1 Linda.
 Calling FoFCou, ICntrl=  3107 FMM=F I1Cent=   0 AccDes= 0.00D+00.
 CoulSu:  requested number of processors reduced to:  15 ShMem   1 Linda.
 Calling FoFCou, ICntrl=  3107 FMM=F I1Cent=   0 AccDes= 0.00D+00.
 CoulSu:  requested number of processors reduced to:  15 ShMem   1 Linda.
 Calling FoFCou, ICntrl=  3107 FMM=F I1Cent=   0 AccDes= 0.00D+00.
 CoulSu:  requested number of processors reduced to:  15 ShMem   1 Linda.
 FoFDir/FoFCou used for L=0 through L=2.
 End of G2Drv Frequency-dependent properties file   721 does not exist.
 End of G2Drv Frequency-dependent properties file   722 does not exist.
          IDoAtm=1111111111111
          Differentiating once with respect to electric field.
                with respect to dipole field.
          Differentiating once with respect to nuclear coordinates.
 PrRfSu:  requested number of processors reduced to:  16 ShMem   1 Linda.
 CalDSu:  requested number of processors reduced to:  22 ShMem   1 Linda.
 PrRfSu:  requested number of processors reduced to:  16 ShMem   1 Linda.
 CalDSu:  requested number of processors reduced to:  22 ShMem   1 Linda.
          There are    42 degrees of freedom in the 1st order CPHF.  IDoFFX=5.
     42 vectors produced by pass  0 Test12= 6.10D-15 2.38D-09 XBig12= 8.08D+01 5.29D+00.
 AX will form    21 AO Fock derivatives at one time.
 PrRfSu:  requested number of processors reduced to:  16 ShMem   1 Linda.
 CalDSu:  requested number of processors reduced to:  22 ShMem   1 Linda.
 PrRfSu:  requested number of processors reduced to:  16 ShMem   1 Linda.
 CalDSu:  requested number of processors reduced to:  22 ShMem   1 Linda.
     39 vectors produced by pass  1 Test12= 6.10D-15 2.38D-09 XBig12= 3.63D+01 1.02D+00.
 PrRfSu:  requested number of processors reduced to:  15 ShMem   1 Linda.
 CalDSu:  requested number of processors reduced to:  19 ShMem   1 Linda.
     39 vectors produced by pass  2 Test12= 6.10D-15 2.38D-09 XBig12= 3.86D-01 1.10D-01.
 PrRfSu:  requested number of processors reduced to:  15 ShMem   1 Linda.
 CalDSu:  requested number of processors reduced to:  19 ShMem   1 Linda.
     39 vectors produced by pass  3 Test12= 6.10D-15 2.38D-09 XBig12= 1.65D-03 7.96D-03.
 PrRfSu:  requested number of processors reduced to:  15 ShMem   1 Linda.
 CalDSu:  requested number of processors reduced to:  19 ShMem   1 Linda.
     39 vectors produced by pass  4 Test12= 6.10D-15 2.38D-09 XBig12= 2.73D-06 1.57D-04.
 PrRfSu:  requested number of processors reduced to:  15 ShMem   1 Linda.
 CalDSu:  requested number of processors reduced to:  19 ShMem   1 Linda.
     27 vectors produced by pass  5 Test12= 6.10D-15 2.38D-09 XBig12= 2.27D-09 5.23D-06.
 PrRfSu:  requested number of processors reduced to:  16 ShMem   1 Linda.
 CalDSu:  requested number of processors reduced to:  21 ShMem   1 Linda.
      3 vectors produced by pass  6 Test12= 6.10D-15 2.38D-09 XBig12= 1.70D-12 1.44D-07.
      3 vectors produced by pass  7 Test12= 6.10D-15 2.38D-09 XBig12= 1.68D-14 3.57D-08.
 Inverted reduced A of dimension   231 with in-core refinement.
 Isotropic polarizability for W=    0.000000       54.00 Bohr**3.
 End of Minotr Frequency-dependent properties file   721 does not exist.
 End of Minotr Frequency-dependent properties file   722 does not exist.
 PrsmSu:  requested number of processors reduced to:  10 ShMem   1 Linda.
 PrsmSu:  requested number of processors reduced to:  10 ShMem   1 Linda.
 Calling FoFJK, ICntrl=    100127 FMM=F ISym2X=0 I1Cent= 0 IOpClX= 0 NMat=1 NMatS=1 NMatT=0.
 CoulSu:  requested number of processors reduced to:  10 ShMem   1 Linda.
 CalDSu:  requested number of processors reduced to:  23 ShMem   1 Linda.
 -------------------------------------------------------------------
 Center     Atomic                   Forces (Hartrees/Bohr)
 Number     Number              X              Y              Z
 -------------------------------------------------------------------
      1        6           0.011894357    0.010910634   -0.010811399
      2        8          -0.011927518   -0.000748099    0.022701951
      3        1           0.004390802    0.004117156   -0.006749660
      4        1           0.001866567   -0.005306022   -0.001165735
      5        1           0.000879615   -0.005366266    0.004003678
      6        1          -0.000568031    0.004834885    0.009517262
      7        1          -0.006661042   -0.002055772   -0.000285540
      8        1           0.006647063    0.000085626    0.001241342
      9        1           0.001171192    0.003396229   -0.000421285
     10        1           0.000831975   -0.000749912    0.004948151
     11        6          -0.001028835    0.003507447    0.003354859
     12        6           0.000176117   -0.003037589   -0.018142174
     13        8          -0.007672263   -0.009588317   -0.008191448
 -------------------------------------------------------------------
 Cartesian Forces:  Max     0.022701951 RMS     0.007204722
 -----------------------------------------------------------------------------------------------
                       Internal Coordinate Forces (Hartree/Bohr or radian)
  Cent   Atom   N1       Length/X         N2         Alpha/Y        N3         Beta/Z          J
 -----------------------------------------------------------------------------------------------
      1  C 
      2  O        1   0.028891(     1)
      3  H        1   0.007703(     2)      2   0.009648(    13)
      4  H        1   0.004900(     3)      2   0.002620(    14)      3   0.012965(    24)     0
      5  H        1   0.004699(     4)      2  -0.004929(    15)      4   0.001180(    25)     0
      6  H        1  -0.002804(     5)      2  -0.039080(    16)      5   0.007839(    26)     0
      7  H        1  -0.002448(     6)      2   0.002131(    17)      5  -0.026093(    27)     0
      8  H        2   0.005681(     7)      1   0.005824(    18)      5  -0.015995(    28)     0
      9  H        1   0.001508(     8)      2   0.002968(    19)      8   0.012641(    29)     0
     10  H        2   0.003692(     9)      1   0.006193(    20)      5  -0.011343(    30)     0
     11  C        1  -0.005622(    10)      2  -0.020119(    21)     10   0.012398(    31)     0
     12  C        1   0.000337(    11)     11  -0.019368(    22)      2   0.034929(    32)     0
     13  O       11  -0.014093(    12)      1  -0.010289(    23)     12   0.005522(    33)     0
 -----------------------------------------------------------------------------------------------
 Internal  Forces:  Max     0.039080496 RMS     0.014265606

 GradGradGradGradGradGradGradGradGradGradGradGradGradGradGradGradGradGrad
 Berny optimization.
 Search for a saddle point.
 Step number   3 out of a maximum of   42
 All quantities printed in internal units (Hartrees-Bohrs-Radians)
 Swaping is turned off.
 Second derivative matrix not updated -- analytic derivatives used.
 ITU=  0  0  0
     Eigenvalues ---   -0.06380  -0.00315   0.00806   0.01463   0.04007
     Eigenvalues ---    0.04046   0.04718   0.05376   0.06993   0.07409
     Eigenvalues ---    0.08105   0.09398   0.10385   0.14339   0.17633
     Eigenvalues ---    0.22971   0.29305   0.34769   0.38882   0.43548
     Eigenvalues ---    0.49179   0.52703   0.54621   0.85933   1.29344
     Eigenvalues ---    1.71152   1.97809   3.32960   3.81401   5.23518
     Eigenvalues ---    7.63865  20.94373
 Eigenvectors required to have negative eigenvalues:
                          A11       A3        A9        D9        D10
   1                    0.58662   0.34472  -0.32818  -0.31261  -0.29916
                          A8        A1        A2        B1        B4
   1                   -0.25645  -0.19629  -0.18554  -0.16472  -0.13180
 RFO step:  Lambda0=7.201059537D-03 Lambda=-5.09669357D-03.
 Linear search not attempted -- option 19 set.
 Maximum step size (   0.300) exceeded in Quadratic search.
    -- Step size scaled by   0.362
 Variable       Old X    -DE/DX   Delta X   Delta X   Delta X     New X
                                 (Linear)    (Quad)   (Total)
    B1        4.11489   0.00770   0.00000  -0.02126  -0.02126   4.09363
    B2        4.04845   0.00490   0.00000   0.00613   0.00613   4.05459
    B3        2.02903   0.00470   0.00000   0.01107   0.01107   2.04010
    B4        3.91297  -0.00280   0.00000  -0.01064  -0.01064   3.90234
    B5        4.02667  -0.00245   0.00000  -0.00230  -0.00230   4.02437
    B6        1.85567   0.00568   0.00000   0.01714   0.01714   1.87281
    B7        4.02623   0.00151   0.00000   0.00621   0.00621   4.03244
    B8        1.82018   0.00369   0.00000   0.00367   0.00367   1.82385
    B9        2.76703  -0.00562   0.00000   0.00983   0.00983   2.77686
   B10        2.80104   0.00034   0.00000  -0.00804  -0.00804   2.79300
   B11        2.66058  -0.01409   0.00000  -0.01675  -0.01675   2.64383
    A1        2.26939   0.00965   0.00000   0.00664   0.00664   2.27602
    A2        1.67759   0.00262   0.00000   0.07697   0.07697   1.75456
    A3        1.18941  -0.00493   0.00000   0.09022   0.09022   1.27962
    A4        2.25362  -0.03908   0.00000  -0.10163  -0.10163   2.15199
    A5        1.66949   0.00213   0.00000  -0.08124  -0.08124   1.58825
    A6        1.25850   0.00582   0.00000  -0.00408  -0.00408   1.25441
    A7        1.36974   0.00297   0.00000  -0.09645  -0.09645   1.27330
    A8        2.22715   0.00619   0.00000  -0.05624  -0.05624   2.17091
    A9        1.84344  -0.02012   0.00000   0.01288   0.01288   1.85632
   A10        2.13065  -0.01937   0.00000  -0.00083  -0.00083   2.12982
   A11        1.51147  -0.01029   0.00000   0.08531   0.08531   1.59679
    D1        0.68510   0.01296   0.00000   0.08749   0.08749   0.77259
    D2        1.60498   0.00118   0.00000  -0.02726  -0.02726   1.57772
    D3        1.74625   0.00784   0.00000   0.05098   0.05098   1.79723
    D4        2.48799  -0.02609   0.00000   0.03420   0.03420   2.52219
    D5        2.59267  -0.01599   0.00000  -0.06694  -0.06694   2.52573
    D6       -2.03773   0.01264   0.00000  -0.02508  -0.02508  -2.06281
    D7        0.84527  -0.01134   0.00000  -0.05194  -0.05194   0.79333
    D8       -1.22809   0.01240   0.00000  -0.05521  -0.05521  -1.28330
    D9        1.96714   0.03493   0.00000  -0.11976  -0.11976   1.84738
   D10        1.24468   0.00552   0.00000  -0.01246  -0.01246   1.23223
         Item               Value     Threshold  Converged?
 Maximum Force            0.039080     0.000450     NO 
 RMS     Force            0.013557     0.000300     NO 
 Maximum Displacement     0.119758     0.001800     NO 
 RMS     Displacement     0.053033     0.001200     NO 
 Predicted change in Energy= 5.639825D-04
 GradGradGradGradGradGradGradGradGradGradGradGradGradGradGradGradGradGrad

 ---------------------------------------------------------------------------------------------------
                            Z-MATRIX (ANGSTROMS AND DEGREES)
   CD    Cent   Atom    N1       Length/X        N2       Alpha/Y        N3        Beta/Z          J
 ---------------------------------------------------------------------------------------------------
      1      1  C 
      2      2  O        1   2.285847(     1)
      3      3  H        1   2.166256(     2)      2  130.407(    13)
      4      4  H        1   2.145594(     3)      2  100.529(    14)      3   44.266(    24)      0
      5      5  H        1   1.079573(     4)      2   73.317(    15)      4   90.397(    25)      0
      6      6  H        1   2.065028(     5)      2  123.300(    16)      5  102.973(    26)      0
      7      7  H        1   2.129604(     6)      2   91.000(    17)      5  144.511(    27)      0
      8      8  H        2   0.991049(     7)      1   71.873(    18)      5  144.714(    28)      0
      9      9  H        1   2.133876(     8)      2   72.955(    19)      8 -118.190(    29)      0
     10     10  H        2   0.965139(     9)      1  124.384(    20)      5   45.454(    30)      0
     11     11  C        1   1.469449(    10)      2  106.359(    21)     10  -73.528(    31)      0
     12     12  C        1   1.477990(    11)     11  122.030(    22)      2  105.847(    32)      0
     13     13  O       11   1.399055(    12)      1   91.489(    23)     12   70.601(    33)      0
 ---------------------------------------------------------------------------------------------------
                         Z-Matrix orientation:                         
 ---------------------------------------------------------------------
 Center     Atomic      Atomic             Coordinates (Angstroms)
 Number     Number       Type             X           Y           Z
 ---------------------------------------------------------------------
      1          6           0        0.000000    0.000000    0.000000
      2          8           0        0.000000    0.000000    2.285847
      3          1           0        1.649527    0.000000   -1.404182
      4          1           0        1.510597   -1.472398   -0.392063
      5          1           0       -0.726926   -0.735532    0.309918
      6          1           0       -0.923894    1.457864   -1.133753
      7          1           0        0.339459    2.102046   -0.037160
      8          1           0        0.927405    0.164379    1.977502
      9          1           0       -1.262797    1.602347    0.625504
     10          1           0        0.011000   -0.796424    2.830898
     11          6           0        1.357483   -0.381080   -0.413882
     12          6           0       -0.491136    1.389848   -0.107524
     13          8           0        1.918947    0.299604    0.671835
 ---------------------------------------------------------------------
                    Distance matrix (angstroms):
                    1          2          3          4          5
     1  C    0.000000
     2  O    2.285847   0.000000
     3  H    2.166256   4.041937   0.000000
     4  H    2.145594   3.408968   1.792106   0.000000
     5  H    1.079573   2.230184   3.021039   2.458101   0.000000
     6  H    2.065028   3.830484   2.970015   3.881145   2.633243
     7  H    2.129604   3.151220   2.829068   3.778118   3.051146
     8  H    2.190346   0.991049   3.461830   2.938365   2.515450
     9  H    2.133876   2.630382   3.894711   4.263944   2.419180
    10  H    2.940816   0.965139   4.610311   3.618455   2.627467
    11  C    1.469449   3.045737   1.100548   1.102223   2.234790
    12  C    1.477990   2.810892   2.862767   3.504333   2.178783
    13  O    2.055111   2.525303   2.114757   2.106803   2.864112
                    6          7          8          9         10
     6  H    0.000000
     7  H    1.792637   0.000000
     8  H    3.844518   2.856413   0.000000
     9  H    1.797420   1.804452   2.948327   0.000000
    10  H    4.655567   4.090816   1.578362   3.498632   0.000000
    11  C    3.017384   2.710020   2.490222   3.446762   3.537531
    12  C    1.115819   1.096387   2.803813   1.085333   3.696790
    13  O    3.561384   2.499251   1.645055   3.438427   3.082709
                   11         12         13
    11  C    0.000000
    12  C    2.578261   0.000000
    13  O    1.399055   2.757632   0.000000
 Symmetry turned off by external request.
 Stoichiometry    C3H8O2
 Framework group  C1[X(C3H8O2)]
 Deg. of freedom    33
 Full point group                 C1      NOp   1
 Rotational constants (GHZ):      5.2036478      4.5380198      3.0620101
 Standard basis: 6-31++G(d,p) (6D, 7F)
 The following finite field(s) will be applied:
 An electric field of              0.0000  0.0000 -0.0050
 Integral buffers will be    131072 words long.
 Raffenetti 2 integral format.
 Two-electron integral symmetry is turned off.
   143 basis functions,   224 primitive gaussians,   143 cartesian basis functions
    21 alpha electrons       21 beta electrons
       nuclear repulsion energy       190.1890123912 Hartrees.
 NAtoms=   13 NActive=   13 NUniq=   13 SFac= 1.00D+00 NAtFMM=   50 NAOKFM=F Big=F
 One-electron integrals computed using PRISM.
 PrsmSu:  requested number of processors reduced to:  10 ShMem   1 Linda.
 NBasis=   143 RedAO= T  NBF=   143
 NBsUse=   143 1.00D-06 NBFU=   143
 The nuclear repulsion energy is now       189.9687678124 hartrees.
 Initial guess read from the read-write file.
 B after Tr=     0.000000    0.000000    0.000000
         Rot=    1.000000    0.000000    0.000000    0.000000 Ang=   0.00 deg.
 Harris functional with IExCor=  402 diagonalized for initial guess.
 ExpMin= 3.60D-02 ExpMax= 5.48D+03 ExpMxC= 8.25D+02 IAcc=3 IRadAn=         0 AccDes= 0.00D+00
 HarFok:  IExCor=  402 AccDes= 0.00D+00 IRadAn=         0 IDoV= 1
 ScaDFX=  1.000000  1.000000  1.000000  1.000000
 FoFCou: FMM=F IPFlag=           0 FMFlag=      100000 FMFlg1=           0
         NFxFlg=           0 DoJE=T BraDBF=F KetDBF=T FulRan=T
         Omega=  0.000000  0.000000  1.000000  0.000000  0.000000 ICntrl=     500 IOpCl=  0
         NMat0=    1 NMatS0=    1 NMatT0=    0 NMatD0=    1 NMtDS0=    0 NMtDT0=    0
         I1Cent=           4 NGrid=           0.
 Symmetry not used in FoFCou.
 Requested convergence on RMS density matrix=1.00D-08 within 128 cycles.
 Requested convergence on MAX density matrix=1.00D-06.
 Requested convergence on             energy=1.00D-06.
 No special actions if energy rises.
[...]
     11  C        1  -0.000001(    10)      2   0.000010(    21)     10  -0.000025(    31)     0
     12  C        1   0.000001(    11)     11   0.000024(    22)      2   0.000001(    32)     0
     13  O       11  -0.000002(    12)      1  -0.000003(    23)     12   0.000000(    33)     0
 -----------------------------------------------------------------------------------------------
 Internal  Forces:  Max     0.006373916 RMS     0.001109589

 GradGradGradGradGradGradGradGradGradGradGradGradGradGradGradGradGradGrad
 Berny optimization.
 Search for a saddle point.
 Step number   1 out of a maximum of    2
 All quantities printed in internal units (Hartrees-Bohrs-Radians)
 Swaping is turned off.
 Second derivative matrix not updated -- analytic derivatives used.
 ITU=  0
     Eigenvalues ---   -0.02782   0.00778   0.01615   0.02422   0.03143
     Eigenvalues ---    0.04380   0.04969   0.05835   0.06346   0.06705
     Eigenvalues ---    0.06842   0.09384   0.10673   0.13378   0.16878
     Eigenvalues ---    0.23609   0.30466   0.34762   0.35713   0.41128
     Eigenvalues ---    0.50497   0.52619   0.54292   0.84765   1.32633
     Eigenvalues ---    1.55273   2.04274   3.14115   4.10679   4.72536
     Eigenvalues ---    7.27207  20.56171
 Eigenvectors required to have negative eigenvalues:
                          A3        A11       A9        D10       D9
   1                    0.49062   0.39988  -0.34472  -0.27258  -0.26069
                          A8        B6        A1        B1        A2
   1                   -0.25539   0.25520  -0.23673  -0.21830  -0.21700
 Angle between quadratic step and forces=  84.65 degrees.
 Linear search not attempted -- option 19 set.
 Variable       Old X    -DE/DX   Delta X   Delta X   Delta X     New X
                                 (Linear)    (Quad)   (Total)
    B1        4.01690   0.00000   0.00000   0.00000   0.00000   4.01690
    B2        4.06987   0.00000   0.00000   0.00000   0.00000   4.06987
    B3        2.05710   0.00000   0.00000   0.00000   0.00000   2.05710
    B4        3.96034   0.00000   0.00000  -0.00003  -0.00003   3.96031
    B5        4.03912   0.00000   0.00000  -0.00001  -0.00001   4.03912
    B6        1.96112   0.00000   0.00000   0.00002   0.00002   1.96114
    B7        4.01075   0.00000   0.00000   0.00003   0.00003   4.01077
    B8        1.82991   0.00000   0.00000   0.00000   0.00000   1.82991
    B9        2.81301   0.00000   0.00000   0.00000   0.00000   2.81301
   B10        2.78995   0.00000   0.00000   0.00000   0.00000   2.78995
   B11        2.59948   0.00000   0.00000   0.00000   0.00000   2.59948
    A1        2.14845   0.00000   0.00000   0.00000   0.00000   2.14845
    A2        1.59113   0.00000   0.00000   0.00005   0.00005   1.59118
    A3        1.42573   0.00000   0.00000   0.00004   0.00004   1.42577
    A4        2.05659  -0.00001   0.00000   0.00012   0.00012   2.05672
    A5        1.76924   0.00000   0.00000  -0.00016  -0.00016   1.76909
    A6        1.27276   0.00000   0.00000  -0.00001  -0.00001   1.27275
    A7        1.22335   0.00001   0.00000   0.00006   0.00006   1.22340
    A8        2.16072   0.00000   0.00000  -0.00004  -0.00004   2.16068
    A9        1.66375   0.00001   0.00000   0.00002   0.00002   1.66377
   A10        2.11652   0.00002   0.00000   0.00001   0.00001   2.11653
   A11        1.76556   0.00000   0.00000   0.00001   0.00001   1.76557
    D1        0.69748   0.00000   0.00000   0.00005   0.00005   0.69753
    D2        1.62802   0.00000   0.00000  -0.00002  -0.00002   1.62800
    D3        1.62180   0.00001   0.00000   0.00014   0.00014   1.62193
    D4        2.51739   0.00001   0.00000   0.00003   0.00003   2.51741
    D5        2.57368   0.00000   0.00000  -0.00006  -0.00006   2.57362
    D6       -1.87106   0.00000   0.00000  -0.00021  -0.00021  -1.87127
    D7        0.81373   0.00003   0.00000  -0.00007  -0.00007   0.81366
    D8       -1.30894  -0.00003   0.00000  -0.00005  -0.00005  -1.30900
    D9        1.77465   0.00000   0.00000  -0.00001  -0.00001   1.77464
   D10        1.07809   0.00000   0.00000   0.00006   0.00006   1.07815
         Item               Value     Threshold  Converged?
 Maximum Force            0.000025     0.000450     YES
 RMS     Force            0.000009     0.000300     YES
 Maximum Displacement     0.000206     0.001800     YES
 RMS     Displacement     0.000064     0.001200     YES
 Predicted change in Energy=-8.198808D-10
 Optimization completed.
    -- Stationary point found.
                       ----------------------------
                       !   Optimized Parameters   !
                       ! (Angstroms and Degrees)  !
 ----------------------                            ----------------------
 !      Name          Value   Derivative information (Atomic Units)     !
 ------------------------------------------------------------------------
 !       B1          2.1257   -DE/DX =    0.0                           !
 !       B2          2.1537   -DE/DX =    0.0                           !
 !       B3          1.0886   -DE/DX =    0.0                           !
 !       B4          2.0957   -DE/DX =    0.0                           !
 !       B5          2.1374   -DE/DX =    0.0                           !
 !       B6          1.0378   -DE/DX =    0.0                           !
 !       B7          2.1224   -DE/DX =    0.0                           !
 !       B8          0.9683   -DE/DX =    0.0                           !
 !       B9          1.4886   -DE/DX =    0.0                           !
 !       B10         1.4764   -DE/DX =    0.0                           !
 !       B11         1.3756   -DE/DX =    0.0                           !
 !       A1        123.097    -DE/DX =    0.0                           !
 !       A2         91.1652   -DE/DX =    0.0                           !
 !       A3         81.6883   -DE/DX =    0.0                           !
 !       A4        117.8341   -DE/DX =    0.0                           !
 !       A5        101.3701   -DE/DX =    0.0                           !
 !       A6         72.9236   -DE/DX =    0.0                           !
 !       A7         70.0927   -DE/DX =    0.0                           !
 !       A8        123.8001   -DE/DX =    0.0                           !
 !       A9         95.3261   -DE/DX =    0.0                           !
 !       A10       121.2679   -DE/DX =    0.0                           !
 !       A11       101.1591   -DE/DX =    0.0                           !
 !       D1         39.9627   -DE/DX =    0.0                           !
 !       D2         93.2789   -DE/DX =    0.0                           !
 !       D3         92.9222   -DE/DX =    0.0                           !
 !       D4        144.2355   -DE/DX =    0.0                           !
 !       D5        147.461    -DE/DX =    0.0                           !
 !       D6       -107.2038   -DE/DX =    0.0                           !
 !       D7         46.6231   -DE/DX =    0.0                           !
 !       D8        -74.9969   -DE/DX =    0.0                           !
 !       D9        101.6801   -DE/DX =    0.0                           !
 !       D10        61.77     -DE/DX =    0.0                           !
 ------------------------------------------------------------------------
 GradGradGradGradGradGradGradGradGradGradGradGradGradGradGradGradGradGrad

 1\1\GINC-C56N01\Freq\RB3LYP\6-31++G(d,p)\C3H8O2\ROOT\06-Mar-2018\1\\#N
  Geom=AllCheck Guess=TCheck SCRF=Check GenChk RB3LYP/6-31++G(d,p) Freq
 \\OH-BACK-MID\\0,1\C\O,1,2.28584674\H,1,B1,2,A1\H,1,B2,2,A2,3,D1,0\H,1
 ,B3,2,A3,4,D2,0\H,1,B4,2,A4,5,D3,0\H,1,B5,2,A5,5,D4,0\H,2,B6,1,A6,5,D5
 ,0\H,1,B7,2,A7,8,D6,0\H,2,B8,1,A8,5,D7,0\C,1,B9,2,A9,10,D8,0\C,1,B10,1
 1,A10,2,D9,0\O,11,B11,1,A11,12,D10,0\\B1=2.12565322\B2=2.15368117\B3=1
 .08857087\B4=2.09572021\B5=2.137412\B6=1.03777968\B7=2.1223949\B8=0.96
 834838\B9=1.48857867\B10=1.47637797\B11=1.37558359\A1=123.09695251\A2=
 91.16520626\A3=81.68825438\A4=117.83407661\A5=101.37014095\A6=72.92363
 33\A7=70.09268019\A8=123.80010693\A9=95.32609738\A10=121.26785534\A11=
 101.15907663\D1=39.96267649\D2=93.27888256\D3=92.92220097\D4=144.23554
 29\D5=147.46104522\D6=-107.20381571\D7=46.62310932\D8=-74.99693472\D9=
 101.68008009\D10=61.76999769\\Version=EM64L-G09RevB.01\HF=-269.4901574
 \RMSD=6.520e-10\RMSF=1.498e-03\ZeroPoint=0.1062189\Thermal=0.1126327\D
 ipole=-1.2978095,-0.756942,-0.4915362\DipoleDeriv=0.7775771,-0.0859348
 ,-0.0425896,-0.1081111,0.4885976,-0.2513761,-0.2329298,-0.1244069,0.71
 46727,-0.5967765,-0.1187194,0.3651586,-0.1168389,-0.450319,0.1673722,0
 .3317461,0.0269553,-1.0881653,0.0712021,0.0179202,0.0851988,-0.0216353
 ,0.025167,0.0747774,0.1218762,0.0211442,-0.2946677,0.0532685,0.0077359
 ,0.0017429,0.1129003,-0.3057689,-0.0505813,0.0161831,-0.0017758,0.0185
 918,0.0083537,-0.0478404,-0.0211394,-0.021488,-0.0329487,0.0050789,0.0
 946926,0.0437263,0.0145561,0.0218388,-0.0342156,-0.0891018,0.0156295,0
 .0384794,0.0280405,-0.1404707,0.0266602,-0.0188221,0.0189726,-0.089280
 3,0.0433823,-0.0012591,0.0188386,0.0382538,-0.0024117,0.0354037,0.0662
 631,0.3790495,0.0948157,-0.4178421,0.0306953,0.2432094,-0.0554639,-0.1
 26062,-0.0327177,0.5884534,0.1190065,-0.0265813,0.0533127,0.0760091,0.
 0701547,0.0429632,0.0285844,-0.0137796,0.0564244,0.2907942,0.0597711,-
 0.0543457,0.0492894,0.2183367,-0.049696,0.0218754,0.0567539,0.2842153,
 0.0742972,0.0782427,0.1945992,-0.2372613,0.4956863,0.1921146,-0.257988
 2,0.0807274,0.5940342,-0.1994232,0.254218,-0.0900774,0.2084535,-0.2008
 528,0.0382516,0.1442974,-0.0397139,-0.0279505,-1.0181606,-0.1101318,-0
 .0282986,0.0136166,-0.6085803,-0.1797349,0.0006071,-0.0789772,-0.90760
 56\Polar=64.8022604,-3.9031187,49.3874906,0.6229852,-3.0014665,64.0694
 194\PG=C01 [X(C3H8O2)]\NImag=1\\0.53669800,0.03949994,0.57987172,-0.04
 748640,-0.03636303,0.16534112,-0.01525422,-0.00754571,0.00172485,0.316
 43931,-0.00047411,-0.01367120,-0.01271469,0.02965044,0.41749864,-0.011
 37718,-0.01542845,0.02047041,-0.06861040,-0.25915681,0.22649570,-0.015
 86039,-0.01309999,0.02746657,-0.00002395,0.00053420,-0.00112547,0.0734
 9342,0.00295426,0.00074033,-0.00384547,0.00211916,0.00072224,0.0003493
 8,0.02428181,0.06937401,0.00564945,0.00252493,-0.00511317,0.00386888,0
 .00135305,-0.00100318,-0.06991489,-0.06042350,0.24195537,-0.01172798,0
 .03506606,-0.00706747,0.00021922,-0.00024887,-0.00087526,0.00496879,-0
 .01005396,0.00407206,0.06123513,-0.00169829,-0.00486419,0.00527900,0.0
 0097358,0.00179018,-0.00131066,0.00302358,-0.01001025,0.00506890,-0.04
 630775,0.29339739,0.00354207,-0.00187007,0.00035998,-0.00034491,0.0004
 6341,-0.00082537,-0.00658494,0.02645162,-0.00525655,0.00910722,-0.0239
 1529,0.05777147,-0.19379020,-0.14228793,0.02740834,0.00012684,0.001574
 55,-0.00229641,-0.00480307,0.00055516,0.00027948,0.00113288,0.00018376
 ,-0.00084370,0.19112873,-0.13500556,-0.20654269,0.03071173,0.00023107,
 0.00147118,-0.00066372,0.00045002,0.00036423,-0.00159527,-0.00051285,0
 .00024023,-0.00028585,0.14527329,0.21233609,0.03250307,0.02905290,-0.0
 4382776,-0.00689842,-0.00293726,-0.01552754,-0.00229951,-0.00019234,-0
 .00261215,0.00025922,-0.00151578,-0.00092382,-0.03294841,-0.03896925,0
 .03371028,-0.01361636,0.00421300,-0.01023337,0.00033046,-0.00047327,0.
 00126041,-0.00016068,-0.00017344,0.00055911,-0.00016147,0.00010776,0.0
 0019781,0.00081907,0.00039609,0.00051678,0.17636153,0.01882873,0.00229
 218,0.02031108,0.00013818,-0.00152138,0.00104895,0.00055370,-0.0004098
 5,-0.00014183,-0.00032710,-0.00011145,-0.00004331,-0.00126007,0.000892
 45,-0.00067942,0.00461664,0.04725706,-0.00133229,-0.00295753,-0.004048
 30,0.00058052,0.00163065,-0.00031360,0.00033323,0.00000374,0.00014086,
 -0.00007405,0.00010149,-0.00001101,0.00041531,0.00069739,0.00129928,0.
 14136842,0.00398269,0.18731505,0.01328424,0.00829698,-0.00323826,-0.00
 002460,0.00006364,0.00032196,0.00052823,-0.00025007,0.00023434,0.00021
 294,-0.00036931,-0.00002511,-0.00023095,0.00324391,0.00103395,-0.01199
 233,-0.01019280,0.00582365,0.20967125,-0.02498026,-0.02445352,0.007693
 56,0.00029235,0.00033271,-0.00008541,0.00066205,-0.00000901,-0.0007388
 7,-0.00032608,0.00024067,-0.00045468,0.00292785,-0.00425389,0.00064080
 ,0.00211671,0.00067180,-0.00141712,0.14030198,0.17862111,0.00342090,0.
 00178344,-0.00186980,-0.00014724,0.00049277,0.00010737,0.00022390,0.00
 017558,-0.00035373,0.00001104,-0.00011664,-0.00019185,0.00059509,0.001
 05005,0.00340254,-0.01567953,-0.01603358,0.00607430,-0.05004195,-0.042
 99045,0.05951476,0.01481765,0.00594899,-0.02792777,-0.22688162,-0.0539
 0567,0.07249888,-0.00056844,-0.00304196,-0.00663977,0.00004300,-0.0015
 7558,0.00018212,0.00078499,0.00107677,0.00661422,-0.00063279,-0.000519
 15,-0.00002903,0.00016826,-0.00032955,-0.00012144,0.20395739,0.0019411
 1,0.00573812,-0.01045136,-0.01307233,-0.05135577,0.02902590,-0.0003754
 0,-0.00131742,-0.00163598,0.00019396,-0.00090093,-0.00073539,0.0002687
 1,0.00027673,0.00230635,-0.00021847,-0.00039799,-0.00032879,0.00000100
 ,-0.00018254,0.00043390,0.03757279,0.07282902,-0.01601730,-0.00731115,
 -0.00015193,0.01925476,0.02209509,-0.04751875,-0.00094912,0.00066701,0
 .00303049,0.00044997,0.00100269,0.00009223,-0.00042944,-0.00041352,-0.
 00536259,0.00033614,0.00007810,0.00032909,-0.00014278,0.00028734,-0.00
 001089,-0.00371002,-0.01288567,0.04837946,-0.01277069,0.00858971,0.006
 62190,0.00003223,-0.00125546,0.00109862,0.00058925,-0.00021815,-0.0003
 1918,-0.00094792,-0.00004232,-0.00040828,0.00040192,0.00004601,-0.0001
 9983,0.00971868,-0.00846359,-0.01952511,-0.01050078,0.00791594,0.01804
 153,-0.00101993,0.00061357,0.00023945,0.10960009,0.01773248,-0.0099341
 4,-0.02539278,-0.00123049,-0.00000306,0.00016307,-0.00066286,0.0005144
 4,-0.00049014,0.00151955,-0.00035115,-0.00023703,0.00009378,0.00072498
 ,0.00183171,-0.00009118,-0.00005404,-0.00067962,-0.00962550,0.00740208
 ,0.01760250,0.00197771,0.00048628,-0.00090327,-0.04247539,0.07397133,-
 0.00355124,-0.00075818,0.00682262,0.00069034,0.00211307,-0.00147030,0.
 00023356,-0.00013499,0.00000725,-0.00048707,0.00026087,0.00013910,0.00
 023184,-0.00029488,0.00033518,0.00998191,-0.00777806,-0.01998439,0.001
 28559,-0.00126009,-0.00379178,-0.00123153,-0.00003387,0.00064338,-0.11
 541259,0.07407179,0.24419692,-0.00070358,0.00114636,0.00335481,-0.0392
 7193,0.03830049,-0.02704479,0.00007693,0.00001921,0.00007013,-0.000031
 56,0.00008198,0.00025109,-0.00001025,-0.00007825,-0.00097439,0.0001925
 7,0.00024599,-0.00053770,-0.00001309,-0.00003636,-0.00015998,0.0117009
 8,-0.02987531,0.01573585,0.00051004,-0.00024191,-0.00050335,0.03421841
 ,-0.00136982,-0.00072536,0.01055763,0.00203588,-0.35838616,0.23032173,
 0.00011829,-0.00003654,0.00007385,-0.00004918,-0.00057734,-0.00008666,
 -0.00067040,-0.00037237,-0.00180147,0.00015952,0.00063055,-0.00021750,
 -0.00002359,0.00000194,-0.00005020,0.01031151,-0.00723268,0.00197449,-
 0.00005002,0.00029494,-0.00064775,-0.01126482,0.36316298,-0.00075252,0
 .00313774,0.00586956,-0.00531585,0.22821902,-0.16667782,-0.00033780,-0
 .00009318,0.00009526,0.00012344,-0.00072495,-0.00050744,-0.00121661,-0
 .00022783,-0.00173017,0.00030539,0.00054118,-0.00031799,-0.00000280,-0
 .00016356,-0.00003221,-0.00221861,0.00802867,-0.00601792,0.00021830,-0
 .00017132,-0.00081422,0.00729807,-0.23960026,0.16974533,-0.18581656,0.
 03992509,0.04488543,-0.01173397,-0.00347941,0.00885562,-0.07457277,-0.
 01898025,0.06305777,-0.05717737,0.05021897,-0.00747252,-0.00410720,0.0
 0283217,-0.01098286,-0.00068157,0.00314609,0.00025349,-0.00059883,-0.0
 0163986,0.00099628,0.01011791,0.00581010,-0.00491171,0.00161838,-0.003
 00704,0.00048485,-0.00030609,0.00037719,0.00033869,0.41405644,0.066525
 64,-0.09273918,0.00981741,-0.00631814,-0.00362033,0.00922476,-0.016466
 90,-0.06677349,0.06926959,0.03772392,-0.25563539,0.03217757,-0.0166159
 4,0.00985992,0.01237254,0.00036382,0.00015304,-0.00029302,0.00052474,0
 .00100283,-0.00010414,0.00503898,0.00192857,-0.00448917,0.00428276,-0.
 00585058,0.00139917,-0.00071725,0.00167488,0.00136433,-0.04713901,0.54
 586991,0.06243273,0.01313243,-0.03811644,0.00316333,-0.00302543,0.0102
 0325,0.07624318,0.06264843,-0.19014499,-0.00964967,0.03600644,-0.05110
 193,0.01274641,0.00412091,0.02254229,-0.00127286,-0.00032499,-0.002852
 29,-0.00214057,-0.00002344,-0.00104722,-0.00759468,-0.00891629,-0.0060
 5109,0.00076373,0.00124567,-0.00221266,-0.00033325,0.00054726,0.002574
 33,-0.03686111,-0.03739134,0.41495781,-0.09581216,0.03460629,0.0032672
 8,0.00175562,0.00524341,-0.00491078,0.00029081,0.00089233,-0.00043798,
 -0.00365947,0.00099642,0.00030598,0.01032418,-0.02118942,0.00162274,-0
 .16039859,-0.00651001,-0.12625066,-0.19919979,-0.12716833,0.04413159,-
 0.00047181,0.00047486,0.00065051,-0.09827184,0.03608458,0.10906150,-0.
 00120897,-0.00150535,-0.00190117,-0.00988219,0.02412423,-0.00409703,0.
 55855029,0.04309831,-0.23169303,0.01727404,-0.00001211,-0.00230273,0.0
 0398400,-0.00123427,0.00106111,0.00065131,-0.00038781,0.00089622,0.000
 24243,0.01106065,-0.01594479,0.00132320,-0.01381905,-0.04861876,-0.000
 63661,-0.13231409,-0.16110517,0.03999035,0.00026667,-0.00069338,0.0003
 8689,0.03259070,-0.06892587,-0.06653529,0.00088110,0.00120133,0.000700
 12,0.00676054,-0.00421437,0.00476003,0.05129559,0.52997291,0.00497982,
 0.02543161,-0.06732672,-0.00154545,0.00668010,-0.00513180,-0.00314365,
 0.00072576,0.00137067,0.00477350,-0.00079477,0.00144744,-0.00043032,0.
 00512044,0.00413209,-0.12727989,0.00127837,-0.16848962,0.04630308,0.03
 891284,-0.06151832,0.00197020,0.00114421,-0.00112656,0.10980263,-0.069
 57832,-0.22312598,-0.00086787,-0.00126991,-0.00150428,-0.00946410,-0.0
 1849601,0.00595513,-0.02294752,-0.00195398,0.50853629,-0.01944774,-0.0
 1435878,-0.01877590,-0.02571339,-0.01552994,0.03220481,0.01604187,0.00
 189591,-0.00047939,0.00589379,-0.00559281,0.00209318,-0.00177696,0.003
 23675,0.01175343,0.00022148,-0.00025660,-0.00102577,-0.00130455,0.0002
 6356,-0.00127019,-0.01201560,-0.00333460,-0.01050631,0.00104056,-0.000
 07373,-0.00078381,-0.00515345,0.00193080,0.00346147,-0.08091618,-0.051
 32685,-0.09340022,-0.00201609,0.00181378,-0.00215044,0.12514626,-0.027
 05241,-0.00401902,-0.01287710,-0.00726186,0.00904568,0.00252724,0.0022
 1577,0.00578020,-0.01391604,-0.01628988,-0.02411399,-0.03170674,-0.001
 10340,0.00094793,-0.00143199,0.00280188,-0.00078358,0.00011423,0.00034
 310,0.00173100,-0.00223360,-0.00282150,-0.01917801,-0.00048883,-0.0015
 3376,0.00172478,-0.00040177,0.00153876,0.00036383,-0.00100995,-0.03482
 459,-0.13165582,-0.07277969,0.00265539,0.00036653,0.01279968,0.0813325
 0,0.15979048,-0.03201110,-0.01037465,-0.03840957,0.05357959,0.01478704
 ,-0.01880836,-0.02014505,-0.02633204,-0.04211615,-0.00064293,-0.019341
 30,-0.00099224,-0.00351159,0.00074979,0.00456238,-0.00006032,-0.002239
 19,0.00085863,0.00058891,-0.00040089,-0.00028316,-0.03179256,-0.005951
 67,0.01376507,-0.00092118,0.00253774,-0.00074510,0.00371137,0.00019880
 ,-0.00068244,-0.04917982,-0.07485169,-0.16470617,0.00150555,-0.0001865
 0,0.00678166,0.07887913,0.12140456,0.24077546\\0.00151233,0.00093331,-
 0.00637605,-0.00151195,-0.00090468,0.00637414,0.00000009,-0.00002922,-
 0.00000096,0.00000012,0.00000119,0.00000003,-0.00000095,0.00000043,-0.
 00000003,-0.00000421,-0.00000137,-0.00000261,-0.00000172,-0.00000144,0
 .00000017,-0.00000193,-0.00000048,-0.00000004,-0.00000125,0.00000055,0
 .00000308,0.00000008,-0.00000017,-0.00000018,-0.00000077,-0.00000067,0
 .00000235,0.00000846,0.00000189,-0.00000063,0.00000171,0.00000065,0.00
 000074\\\@


 POCKETA-POCKETA
 BARON VON RICHTOFEN
 SLAUGHTERED THE ALLIES WITH
 HARDLY A CARE.
 KILLED EIGHTY-ONE WITH HIS
 BLOOD-COLORED TRIPLANE, THEN
 UN-AEROBATICALLY
 PLUNGED FROM THE AIR.
   -- TONY HOFFMAN
 Job cpu time:  0 days  0 hours  8 minutes  4.8 seconds.
 File lengths (MBytes):  RWF=   1280 Int=      0 D2E=      0 Chk=     32 Scr=     32
 Normal termination of Gaussian 09 at Tue Mar  6 17:12:45 2018.
