 Entering Gaussian System, Link 0=g09
 Input=H2O-term-field.gjf
 Output=H2O-term-field.log
 Initial command:
 /share/home/zxchen/g09/l1.exe /scratch/zxchen/Gau-2905.inp -scrdir=/scratch/zxchen/
 Entering Link 1 = /share/home/zxchen/g09/l1.exe PID=      2906.
  
 Copyright (c) 1988,1990,1992,1993,1995,1998,2003,2009,2010,
            Gaussian, Inc.  All Rights Reserved.
  
 This is part of the Gaussian(R) 09 program.  It is based on
 the Gaussian(R) 03 system (copyright 2003, Gaussian, Inc.),
 the Gaussian(R) 98 system (copyright 1998, Gaussian, Inc.),
 the Gaussian(R) 94 system (copyright 1995, Gaussian, Inc.),
 the Gaussian 92(TM) system (copyright 1992, Gaussian, Inc.),
 the Gaussian 90(TM) system (copyright 1990, Gaussian, Inc.),
 the Gaussian 88(TM) system (copyright 1988, Gaussian, Inc.),
 the Gaussian 86(TM) system (copyright 1986, Carnegie Mellon
 University), and the Gaussian 82(TM) system (copyright 1983,
 Carnegie Mellon University). Gaussian is a federally registered
 trademark of Gaussian, Inc.
  
 This software contains proprietary and confidential information,
 including trade secrets, belonging to Gaussian, Inc.
  
 This software is provided under written license and may be
 used, copied, transmitted, or stored only in accord with that
 written license.
  
 The following legend is applicable only to US Government
 contracts under FAR:
  
                    RESTRICTED RIGHTS LEGEND
  
 Use, reproduction and disclosure by the US Government is
 subject to restrictions as set forth in subparagraphs (a)
 and (c) of the Commercial Computer Software - Restricted
 Rights clause in FAR 52.227-19.
  
 Gaussian, Inc.
 340 Quinnipiac St., Bldg. 40, Wallingford CT 06492
  
  
 ---------------------------------------------------------------
 Warning -- This program may not be used in any manner that
 competes with the business of Gaussian, Inc. or will provide
 assistance to any competitor of Gaussian, Inc.  The licensee
 of this program is prohibited from giving any competitor of
 Gaussian, Inc. access to this program.  By using this program,
 the user acknowledges that Gaussian, Inc. is engaged in the
 business of creating and licensing software in the field of
 computational chemistry and represents and warrants to the
 licensee that it is not a competitor of Gaussian, Inc. and that
 it will not use this program in any manner prohibited above.
 ---------------------------------------------------------------
  

 Cite this work as:
 Gaussian 09, Revision B.01,
 M. J. Frisch, G. W. Trucks, H. B. Schlegel, G. E. Scuseria, 
 M. A. Robb, J. R. Cheeseman, G. Scalmani, V. Barone, B. Mennucci, 
 G. A. Petersson, H. Nakatsuji, M. Caricato, X. Li, H. P. Hratchian, 
 A. F. Izmaylov, J. Bloino, G. Zheng, J. L. Sonnenberg, M. Hada, 
 M. Ehara, K. Toyota, R. Fukuda, J. Hasegawa, M. Ishida, T. Nakajima, 
 Y. Honda, O. Kitao, H. Nakai, T. Vreven, J. A. Montgomery, Jr., 
 J. E. Peralta, F. Ogliaro, M. Bearpark, J. J. Heyd, E. Brothers, 
 K. N. Kudin, V. N. Staroverov, T. Keith, R. Kobayashi, J. Normand, 
 K. Raghavachari, A. Rendell, J. C. Burant, S. S. Iyengar, J. Tomasi, 
 M. Cossi, N. Rega, J. M. Millam, M. Klene, J. E. Knox, J. B. Cross, 
 V. Bakken, C. Adamo, J. Jaramillo, R. Gomperts, R. E. Stratmann, 
 O. Yazyev, A. J. Austin, R. Cammi, C. Pomelli, J. W. Ochterski, 
 R. L. Martin, K. Morokuma, V. G. Zakrzewski, G. A. Voth, 
 P. Salvador, J. J. Dannenberg, S. Dapprich, A. D. Daniels, 
 O. Farkas, J. B. Foresman, J. V. Ortiz, J. Cioslowski, 
 and D. J. Fox, Gaussian, Inc., Wallingford CT, 2010.
 
 ******************************************
 Gaussian 09:  EM64L-G09RevB.01 12-Aug-2010
                 6-Mar-2018 
 ******************************************
 %chk=ts\H2O-term-field.chk
 %nprocshared=24
 Will use up to   24 processors via shared memory.
 ----------------------------------------------------------------------
 # field=z-50 freq opt=(z-matrix,ts,calcfc,noeigen) nosymm rb3lyp/6-31+
 +g(d,p)
 ----------------------------------------------------------------------
 1/5=1,10=4,11=1,14=-1,18=40,26=3,38=1/1,3;
 2/12=2,15=1,17=6,18=5,29=3,40=1/2;
 3/5=1,6=6,7=1111,11=2,14=3,15=-50,16=1,25=1,30=1,71=2,74=-5,116=1/1,2,3;
 4//1;
 5/5=2,38=5/2;
 8/6=4,10=90,11=11/1;
 11/6=1,8=1,9=11,15=111,16=1,31=1/1,2,10;
 10/6=1,7=6,13=1,31=1/2;
 6/7=2,8=2,9=2,10=2,28=1/1;
 7/10=1,18=20,25=1,30=1/1,2,3,16;
 1/5=1,10=4,11=1,14=-1,18=40/3(2);
 2/15=1,29=3/2;
 99//99;
 2/15=1,29=3/2;
 3/5=1,6=6,7=1111,11=2,14=3,15=-50,16=1,25=1,30=1,71=1,74=-5,116=1/1,2,3;
 4/5=5,16=3/1;
 5/5=2,38=5/2;
 7/30=1/1,2,3,16;
 1/5=1,11=1,14=-1,18=40/3(-5);
 2/15=1,29=3/2;
 6/7=2,8=2,9=2,10=2,19=2,28=1/1;
 99/9=1/99;
 ------------
 OH-BACK-TERM
 ------------
 Symbolic Z-matrix:
 Charge =  0 Multiplicity = 1
 C
 O                    1     2.20329 
 H                    2    B1       1    A1
 H                    2    B2       1    A2       3    D1       0
 H                    1    B3       2    A3       3    D2       0
 H                    1    B4       2    A4       3    D3       0
 H                    1    B5       2    A5       3    D4       0
 H                    1    B6       2    A6       3    D5       0
 H                    1    B7       2    A7       3    D6       0
 H                    1    B8       2    A8       3    D7       0
 C                    1    B9       2    A9       3    D8       0
 C                    1    B10      2    A10      11   D9       0
 O                    12   B11      1    A11      2    D10      0
       Variables:
  B1                    0.96                     
  B2                    1.04473                  
  B3                    1.07                     
  B4                    1.07                     
  B5                    2.76608                  
  B6                    2.88703                  
  B7                    3.43834                  
  B8                    2.09921                  
  B9                    2.54685                  
  B10                   1.47699                  
  B11                   1.43                     
  A1                  109.94163                  
  A2                   71.37976                  
  A3                   98.99694                  
  A4                   76.87242                  
  A5                   76.16809                  
  A6                  111.81475                  
  A7                   95.76582                  
  A8                  126.38247                  
  A9                   95.91841                  
  A10                 101.64969                  
  A11                  94.21089                  
  D1                 -101.99684                  
  D2                    6.47843                  
  D3                 -109.92239                  
  D4                  170.80164                  
  D5                  174.47812                  
  D6                  147.87599                  
  D7                  110.88798                  
  D8                  159.41149                  
  D9                  -32.54484                  
  D10                 -37.76004                  
 

 GradGradGradGradGradGradGradGradGradGradGradGradGradGradGradGradGradGrad
 Berny optimization.
 Initialization pass.
                       ----------------------------
                       !    Initial Parameters    !
                       ! (Angstroms and Degrees)  !
 ----------------------                            ----------------------
 !      Name          Value   Derivative information (Atomic Units)     !
 ------------------------------------------------------------------------
 !       B1          0.96     calculate D2E/DX2 analytically            !
 !       B2          1.0447   calculate D2E/DX2 analytically            !
 !       B3          1.07     calculate D2E/DX2 analytically            !
 !       B4          1.07     calculate D2E/DX2 analytically            !
 !       B5          2.7661   calculate D2E/DX2 analytically            !
 !       B6          2.887    calculate D2E/DX2 analytically            !
 !       B7          3.4383   calculate D2E/DX2 analytically            !
 !       B8          2.0992   calculate D2E/DX2 analytically            !
 !       B9          2.5469   calculate D2E/DX2 analytically            !
 !       B10         1.477    calculate D2E/DX2 analytically            !
 !       B11         1.43     calculate D2E/DX2 analytically            !
 !       A1        109.9416   calculate D2E/DX2 analytically            !
 !       A2         71.3798   calculate D2E/DX2 analytically            !
 !       A3         98.9969   calculate D2E/DX2 analytically            !
 !       A4         76.8724   calculate D2E/DX2 analytically            !
 !       A5         76.1681   calculate D2E/DX2 analytically            !
 !       A6        111.8147   calculate D2E/DX2 analytically            !
 !       A7         95.7658   calculate D2E/DX2 analytically            !
 !       A8        126.3825   calculate D2E/DX2 analytically            !
 !       A9         95.9184   calculate D2E/DX2 analytically            !
 !       A10       101.6497   calculate D2E/DX2 analytically            !
 !       A11        94.2109   calculate D2E/DX2 analytically            !
 !       D1       -101.9968   calculate D2E/DX2 analytically            !
 !       D2          6.4784   calculate D2E/DX2 analytically            !
 !       D3       -109.9224   calculate D2E/DX2 analytically            !
 !       D4        170.8016   calculate D2E/DX2 analytically            !
 !       D5        174.4781   calculate D2E/DX2 analytically            !
 !       D6        147.876    calculate D2E/DX2 analytically            !
 !       D7        110.888    calculate D2E/DX2 analytically            !
 !       D8        159.4115   calculate D2E/DX2 analytically            !
 !       D9        -32.5448   calculate D2E/DX2 analytically            !
 !       D10       -37.76     calculate D2E/DX2 analytically            !
 ------------------------------------------------------------------------
 Trust Radius=3.00D-01 FncErr=1.00D-07 GrdErr=1.00D-06
 Number of steps in this run=     42 maximum allowed number of steps=    100.
 Search for a saddle point of order  1.
 GradGradGradGradGradGradGradGradGradGradGradGradGradGradGradGradGradGrad

 ---------------------------------------------------------------------------------------------------
                            Z-MATRIX (ANGSTROMS AND DEGREES)
   CD    Cent   Atom    N1       Length/X        N2       Alpha/Y        N3        Beta/Z          J
 ---------------------------------------------------------------------------------------------------
      1      1  C 
      2      2  O        1   2.203291(     1)
      3      3  H        2   0.960000(     2)      1  109.942(    13)
      4      4  H        2   1.044733(     3)      1   71.380(    14)      3 -101.997(    24)      0
      5      5  H        1   1.070000(     4)      2   98.997(    15)      3    6.478(    25)      0
      6      6  H        1   1.070000(     5)      2   76.872(    16)      3 -109.922(    26)      0
      7      7  H        1   2.766076(     6)      2   76.168(    17)      3  170.802(    27)      0
      8      8  H        1   2.887029(     7)      2  111.815(    18)      3  174.478(    28)      0
      9      9  H        1   3.438336(     8)      2   95.766(    19)      3  147.876(    29)      0
     10     10  H        1   2.099214(     9)      2  126.382(    20)      3  110.888(    30)      0
     11     11  C        1   2.546853(    10)      2   95.918(    21)      3  159.411(    31)      0
     12     12  C        1   1.476987(    11)      2  101.650(    22)     11  -32.545(    32)      0
     13     13  O       12   1.430000(    12)      1   94.211(    23)      2  -37.760(    33)      0
 ---------------------------------------------------------------------------------------------------
                         Z-Matrix orientation:                         
 ---------------------------------------------------------------------
 Center     Atomic      Atomic             Coordinates (Angstroms)
 Number     Number       Type             X           Y           Z
 ---------------------------------------------------------------------
      1          6           0        0.000000    0.000000    0.000000
      2          8           0        0.000000    0.000000    2.203291
      3          1           0        0.902439    0.000000    2.530711
      4          1           0       -0.205789   -0.968423    1.869714
      5          1           0        1.050087   -0.119242   -0.167328
      6          1           0       -0.355071    0.979677    0.243019
      7          1           0       -2.651325   -0.429343    0.661298
      8          1           0       -2.667852   -0.257913   -1.072840
      9          1           0       -2.897191   -1.819097   -0.345425
     10          1           0       -0.602565   -1.578956   -1.245196
     11          6           0       -2.371478   -0.890837   -0.262612
     12          6           0       -0.867872   -1.157299   -0.298244
     13          8           0       -0.367488   -1.945660    0.784808
 ---------------------------------------------------------------------
                    Distance matrix (angstroms):
                    1          2          3          4          5
     1  C    0.000000
     2  O    2.203291   0.000000
     3  H    2.686800   0.960000   0.000000
     4  H    2.115661   1.044733   1.613360   0.000000
     5  H    1.070000   2.595522   2.704706   2.539266   0.000000
     6  H    1.070000   2.220024   2.788303   2.542344   1.830431
     7  H    2.766076   3.097032   4.038351   2.780562   3.805685
     8  H    2.887029   4.232846   5.079279   3.901948   3.829132
     9  H    3.438336   4.266003   5.100830   3.588054   4.301422
    10  H    2.099214   3.840345   4.360689   3.198882   2.454348
    11  C    2.546853   3.535275   4.394857   3.040236   3.508781
    12  C    1.476987   2.889674   3.532184   2.274658   2.184781
    13  O    2.129921   2.435720   2.906283   1.469067   2.500377
                    6          7          8          9         10
     6  H    0.000000
     7  H    2.726367   0.000000
     8  H    2.934632   1.742669   0.000000
     9  H    3.826457   1.733596   1.737534   0.000000
    10  H    2.970292   3.025516   2.457696   2.476402   0.000000
    11  C    2.796494   1.070000   1.070000   1.070000   2.137295
    12  C    2.263315   2.152056   2.156113   2.135027   1.070000
    13  O    2.975111   2.744155   3.404559   2.773598   2.076211
                   11         12         13
    11  C    0.000000
    12  C    1.527449   0.000000
    13  O    2.495138   1.430000   0.000000
 Symmetry turned off by external request.
 Stoichiometry    C3H8O2
 Framework group  C1[X(C3H8O2)]
 Deg. of freedom    33
 Full point group                 C1      NOp   1
 Rotational constants (GHZ):      7.0600530      3.2958543      3.1474056
 Standard basis: 6-31++G(d,p) (6D, 7F)
 The following finite field(s) will be applied:
 An electric field of              0.0000  0.0000 -0.0050
 Integral buffers will be    131072 words long.
 Raffenetti 2 integral format.
 Two-electron integral symmetry is turned off.
   143 basis functions,   224 primitive gaussians,   143 cartesian basis functions
    21 alpha electrons       21 beta electrons
       nuclear repulsion energy       189.7847448441 Hartrees.
 NAtoms=   13 NActive=   13 NUniq=   13 SFac= 1.00D+00 NAtFMM=   50 NAOKFM=F Big=F
 One-electron integrals computed using PRISM.
 PrsmSu:  requested number of processors reduced to:  10 ShMem   1 Linda.
 NBasis=   143 RedAO= T  NBF=   143
 NBsUse=   143 1.00D-06 NBFU=   143
 The nuclear repulsion energy is now       189.5672977591 hartrees.
 Harris functional with IExCor=  402 diagonalized for initial guess.
 ExpMin= 3.60D-02 ExpMax= 5.48D+03 ExpMxC= 8.25D+02 IAcc=3 IRadAn=         0 AccDes= 0.00D+00
 HarFok:  IExCor=  402 AccDes= 0.00D+00 IRadAn=         0 IDoV= 1
 ScaDFX=  1.000000  1.000000  1.000000  1.000000
 FoFCou: FMM=F IPFlag=           0 FMFlag=      100000 FMFlg1=           0
         NFxFlg=           0 DoJE=T BraDBF=F KetDBF=T FulRan=T
         Omega=  0.000000  0.000000  1.000000  0.000000  0.000000 ICntrl=     500 IOpCl=  0
         NMat0=    1 NMatS0=    1 NMatT0=    0 NMatD0=    1 NMtDS0=    0 NMtDT0=    0
         I1Cent=           4 NGrid=           0.
 Symmetry not used in FoFCou.
 Requested convergence on RMS density matrix=1.00D-08 within 128 cycles.
 Requested convergence on MAX density matrix=1.00D-06.
 Requested convergence on             energy=1.00D-06.
 No special actions if energy rises.
 EnCoef did     2 forward-backward iterations
 SCF Done:  E(RB3LYP) =  -269.481816162     A.U. after   15 cycles
             Convg  =    0.8592D-08             -V/T =  2.0089
 Range of M.O.s used for correlation:     1   143
 NBasis=   143 NAE=    21 NBE=    21 NFC=     0 NFV=     0
 NROrb=    143 NOA=    21 NOB=    21 NVA=   122 NVB=   122

 **** Warning!!: The largest alpha MO coefficient is  0.42970259D+02

 PrsmSu:  requested number of processors reduced to:  10 ShMem   1 Linda.
 PrsmSu:  requested number of processors reduced to:  17 ShMem   1 Linda.
 Symmetrizing basis deriv contribution to polar:
 IMax=3 JMax=2 DiffMx= 0.00D+00
 G2DrvN: will do     3 centers at a time, making    5 passes doing MaxLOS=2.
 Estimated number of processors is:   15
 Calling FoFCou, ICntrl=  3107 FMM=F I1Cent=   0 AccDes= 0.00D+00.
 CoulSu:  requested number of processors reduced to:  15 ShMem   1 Linda.
 Calling FoFCou, ICntrl=  3107 FMM=F I1Cent=   0 AccDes= 0.00D+00.
 CoulSu:  requested number of processors reduced to:  15 ShMem   1 Linda.
 Calling FoFCou, ICntrl=  3107 FMM=F I1Cent=   0 AccDes= 0.00D+00.
 CoulSu:  requested number of processors reduced to:  15 ShMem   1 Linda.
 Calling FoFCou, ICntrl=  3107 FMM=F I1Cent=   0 AccDes= 0.00D+00.
 CoulSu:  requested number of processors reduced to:  15 ShMem   1 Linda.
 Calling FoFCou, ICntrl=  3107 FMM=F I1Cent=   0 AccDes= 0.00D+00.
 CoulSu:  requested number of processors reduced to:  15 ShMem   1 Linda.
 FoFDir/FoFCou used for L=0 through L=2.
 End of G2Drv Frequency-dependent properties file   721 does not exist.
 End of G2Drv Frequency-dependent properties file   722 does not exist.
          IDoAtm=1111111111111
          Differentiating once with respect to nuclear coordinates.
 PrRfSu:  requested number of processors reduced to:  16 ShMem   1 Linda.
 CalDSu:  requested number of processors reduced to:  22 ShMem   1 Linda.
 PrRfSu:  requested number of processors reduced to:  16 ShMem   1 Linda.
 CalDSu:  requested number of processors reduced to:  22 ShMem   1 Linda.
          There are    42 degrees of freedom in the 1st order CPHF.  IDoFFX=5.
     36 vectors produced by pass  0 Test12= 6.10D-11 2.38D-07 XBig12= 1.51D-01 3.10D-01.
 AX will form    36 AO Fock derivatives at one time.
 PrRfSu:  requested number of processors reduced to:  15 ShMem   1 Linda.
 CalDSu:  requested number of processors reduced to:  19 ShMem   1 Linda.
     36 vectors produced by pass  1 Test12= 6.10D-11 2.38D-07 XBig12= 6.65D-02 6.99D-02.
 PrRfSu:  requested number of processors reduced to:  15 ShMem   1 Linda.
 CalDSu:  requested number of processors reduced to:  19 ShMem   1 Linda.
     36 vectors produced by pass  2 Test12= 6.10D-11 2.38D-07 XBig12= 2.75D-04 2.25D-03.
 PrRfSu:  requested number of processors reduced to:  15 ShMem   1 Linda.
 CalDSu:  requested number of processors reduced to:  19 ShMem   1 Linda.
     36 vectors produced by pass  3 Test12= 6.10D-11 2.38D-07 XBig12= 8.06D-07 1.37D-04.
 PrRfSu:  requested number of processors reduced to:  15 ShMem   1 Linda.
 CalDSu:  requested number of processors reduced to:  19 ShMem   1 Linda.
     17 vectors produced by pass  4 Test12= 6.10D-11 2.38D-07 XBig12= 1.44D-09 5.31D-06.
 PrRfSu:  requested number of processors reduced to:  17 ShMem   1 Linda.
 CalDSu:  requested number of processors reduced to:  23 ShMem   1 Linda.
 Inverted reduced A of dimension   161 with in-core refinement.
 End of Minotr Frequency-dependent properties file   721 does not exist.
 End of Minotr Frequency-dependent properties file   722 does not exist.

 **********************************************************************

            Population analysis using the SCF density.

 **********************************************************************

 Alpha  occ. eigenvalues --  -19.15614 -19.10873 -10.28525 -10.24731 -10.17810
 Alpha  occ. eigenvalues --   -1.00702  -0.95212  -0.76959  -0.71508  -0.59689
 Alpha  occ. eigenvalues --   -0.52682  -0.49519  -0.47191  -0.43963  -0.40199
 Alpha  occ. eigenvalues --   -0.38946  -0.37804  -0.35054  -0.32716  -0.24212
 Alpha  occ. eigenvalues --   -0.23765
 Alpha virt. eigenvalues --   -0.11030  -0.02427  -0.00028   0.00606   0.02606
 Alpha virt. eigenvalues --    0.03916   0.04266   0.05794   0.06853   0.07732
 Alpha virt. eigenvalues --    0.08855   0.10210   0.10878   0.11329   0.12544
 Alpha virt. eigenvalues --    0.13053   0.14293   0.15364   0.16087   0.16340
 Alpha virt. eigenvalues --    0.18088   0.20131   0.20667   0.20952   0.21421
 Alpha virt. eigenvalues --    0.23039   0.24263   0.26286   0.26805   0.27838
 Alpha virt. eigenvalues --    0.28829   0.31475   0.32081   0.33359   0.34137
 Alpha virt. eigenvalues --    0.36782   0.38403   0.39816   0.41630   0.46097
 Alpha virt. eigenvalues --    0.64060   0.65592   0.70064   0.72082   0.75223
 Alpha virt. eigenvalues --    0.75933   0.77157   0.78879   0.87089   0.93560
 Alpha virt. eigenvalues --    0.96865   0.97454   0.98961   1.01032   1.04472
 Alpha virt. eigenvalues --    1.07491   1.13483   1.16175   1.17699   1.18356
 Alpha virt. eigenvalues --    1.21613   1.24289   1.30364   1.33590   1.35907
 Alpha virt. eigenvalues --    1.42694   1.43623   1.48100   1.53300   1.56164
 Alpha virt. eigenvalues --    1.62076   1.63918   1.69487   1.73596   1.78723
 Alpha virt. eigenvalues --    1.79039   1.82865   1.84159   1.88798   1.91436
 Alpha virt. eigenvalues --    2.00627   2.03960   2.04691   2.10232   2.13602
 Alpha virt. eigenvalues --    2.14680   2.17535   2.23719   2.27772   2.31453
 Alpha virt. eigenvalues --    2.36069   2.38213   2.39726   2.41344   2.46439
 Alpha virt. eigenvalues --    2.55957   2.56327   2.60678   2.67481   2.68437
 Alpha virt. eigenvalues --    2.74158   2.76322   2.81813   2.85621   2.87903
 Alpha virt. eigenvalues --    2.95625   3.02902   3.07341   3.10236   3.31895
 Alpha virt. eigenvalues --    3.36805   3.40618   3.44867   3.49282   3.52470
 Alpha virt. eigenvalues --    3.54973   3.74047   4.21892   4.34732   4.42355
 Alpha virt. eigenvalues --    4.50990   4.68322
          Condensed to atoms (all electrons):
              1          2          3          4          5          6
     1  C    5.711768   0.019413   0.006023   0.030429   0.355274   0.401493
     2  O    0.019413   8.403553   0.249061   0.143017  -0.007342  -0.059434
     3  H    0.006023   0.249061   0.386362  -0.009536  -0.006249   0.004050
     4  H    0.030429   0.143017  -0.009536   0.331734  -0.003146   0.008361
     5  H    0.355274  -0.007342  -0.006249  -0.003146   0.583082  -0.059103
     6  H    0.401493  -0.059434   0.004050   0.008361  -0.059103   0.521448
     7  H   -0.011176   0.006757  -0.000781   0.002451  -0.001702   0.005253
     8  H   -0.003701  -0.000383   0.000131   0.001187   0.001044  -0.005155
     9  H    0.006351   0.002116  -0.000015  -0.002922  -0.002901   0.001682
    10  H   -0.063687  -0.009805   0.001522   0.013450  -0.056193   0.027238
    11  C    0.317816  -0.051123   0.002895   0.011278   0.041683   0.004576
    12  C   -0.515655   0.115168  -0.014363  -0.097783  -0.049930  -0.078674
    13  O   -0.023770  -0.151535   0.008514   0.122243   0.005112   0.019020
              7          8          9         10         11         12
     1  C   -0.011176  -0.003701   0.006351  -0.063687   0.317816  -0.515655
     2  O    0.006757  -0.000383   0.002116  -0.009805  -0.051123   0.115168
     3  H   -0.000781   0.000131  -0.000015   0.001522   0.002895  -0.014363
     4  H    0.002451   0.001187  -0.002922   0.013450   0.011278  -0.097783
     5  H   -0.001702   0.001044  -0.002901  -0.056193   0.041683  -0.049930
     6  H    0.005253  -0.005155   0.001682   0.027238   0.004576  -0.078674
     7  H    0.467894  -0.034024  -0.009043   0.005775   0.413564  -0.046054
     8  H   -0.034024   0.604066  -0.032889  -0.004733   0.387715  -0.042512
     9  H   -0.009043  -0.032889   0.508431  -0.002894   0.392923  -0.024485
    10  H    0.005775  -0.004733  -0.002894   0.789444  -0.117304   0.351992
    11  C    0.413564   0.387715   0.392923  -0.117304   6.021548  -0.796366
    12  C   -0.046054  -0.042512  -0.024485   0.351992  -0.796366   6.779295
    13  O    0.003669   0.008987  -0.006709  -0.049198  -0.092973   0.259077
             13
     1  C   -0.023770
     2  O   -0.151535
     3  H    0.008514
     4  H    0.122243
     5  H    0.005112
     6  H    0.019020
     7  H    0.003669
     8  H    0.008987
     9  H   -0.006709
    10  H   -0.049198
    11  C   -0.092973
    12  C    0.259077
    13  O    8.465247
 Mulliken atomic charges:
              1
     1  C   -0.230578
     2  O   -0.659465
     3  H    0.372386
     4  H    0.449237
     5  H    0.200371
     6  H    0.209245
     7  H    0.197418
     8  H    0.120268
     9  H    0.170354
    10  H    0.114392
    11  C   -0.536232
    12  C    0.160290
    13  O   -0.567685
 Sum of Mulliken atomic charges =   0.00000
 Mulliken charges with hydrogens summed into heavy atoms:
              1
     1  C    0.179038
     2  O    0.162158
    11  C   -0.048192
    12  C    0.274682
    13  O   -0.567685
 Sum of Mulliken charges with hydrogens summed into heavy atoms =   0.00000
 APT atomic charges:
              1
     1  C   -0.406853
     2  O   -0.848303
     3  H    0.620322
     4  H    0.361974
     5  H    0.389962
     6  H    0.370557
     7  H    0.332263
     8  H    0.338409
     9  H    0.608483
    10  H    0.359246
    11  C   -1.237991
    12  C   -0.274934
    13  O   -0.613136
 Sum of APT charges=   0.00000
 APT Atomic charges with hydrogens summed into heavy atoms:
              1
     1  C    0.353666
     2  O    0.133994
     3  H    0.000000
     4  H    0.000000
     5  H    0.000000
     6  H    0.000000
     7  H    0.000000
     8  H    0.000000
     9  H    0.000000
    10  H    0.000000
    11  C    0.041164
    12  C    0.084312
    13  O   -0.613136
 Sum of APT charges=   0.00000
 Electronic spatial extent (au):  <R**2>=            695.0827
 Charge=              0.0000 electrons
 Dipole moment (field-independent basis, Debye):
    X=              1.2600    Y=              2.6604    Z=             -1.2927  Tot=              3.2151
 Quadrupole moment (field-independent basis, Debye-Ang):
   XX=            -29.3858   YY=            -40.1179   ZZ=            -32.8390
   XY=              0.3598   XZ=              3.9665   YZ=              1.7146
 Traceless Quadrupole moment (field-independent basis, Debye-Ang):
   XX=              4.7284   YY=             -6.0037   ZZ=              1.2753
   XY=              0.3598   XZ=              3.9665   YZ=              1.7146
 Octapole moment (field-independent basis, Debye-Ang**2):
  XXX=             74.7130  YYY=             94.8073  ZZZ=            -43.9192  XYY=             24.1978
  XXY=             23.2133  XXZ=            -10.7603  XZZ=             36.3513  YZZ=             22.0134
  YYZ=            -22.9412  XYZ=             -0.8593
 Hexadecapole moment (field-independent basis, Debye-Ang**3):
 XXXX=           -347.0138 YYYY=           -313.3893 ZZZZ=           -272.7208 XXXY=            -72.2882
 XXXZ=            -17.9048 YYYX=            -77.9245 YYYZ=             32.6591 ZZZX=             11.9396
 ZZZY=              4.3246 XXYY=            -99.8893 XXZZ=            -95.1479 YYZZ=            -93.3197
 XXYZ=              6.0622 YYXZ=             -1.9394 ZZXY=            -26.5572
 N-N= 1.895672977591D+02 E-N=-1.009509293570D+03  KE= 2.671051011553D+02
  Exact polarizability:   0.000   0.000   0.000   0.000   0.000   0.000
 Approx polarizability:  63.907  10.864 102.641   4.027  -4.710  90.969
 PrsmSu:  requested number of processors reduced to:  10 ShMem   1 Linda.
 PrsmSu:  requested number of processors reduced to:  10 ShMem   1 Linda.
 Calling FoFJK, ICntrl=    100147 FMM=F ISym2X=0 I1Cent= 0 IOpClX= 0 NMat=1 NMatS=1 NMatT=0.
 CoulSu:  requested number of processors reduced to:  10 ShMem   1 Linda.
 CalDSu:  requested number of processors reduced to:  23 ShMem   1 Linda.
 -------------------------------------------------------------------
 Center     Atomic                   Forces (Hartrees/Bohr)
 Number     Number              X              Y              Z
 -------------------------------------------------------------------
      1        6          -0.006409015   -0.008623340    0.005871120
      2        8          -0.008169861    0.000611885   -0.008560554
      3        1           0.007989448    0.000283605    0.004185842
      4        1           0.000205332   -0.000595271    0.002092701
      5        1           0.010403733   -0.001054827   -0.001885502
      6        1          -0.003546859    0.009375935    0.001927740
      7        1          -0.004310610    0.007072242    0.014638848
      8        1          -0.004806303    0.011788484   -0.014871384
      9        1          -0.007905399   -0.014671203   -0.000882256
     10        1           0.006700816   -0.010969950   -0.019430429
     11        6           0.016881327   -0.004630715    0.002755253
     12        6          -0.000350770    0.002556828    0.031068801
     13        8          -0.006681840    0.008856328   -0.016910179
 -------------------------------------------------------------------
 Cartesian Forces:  Max     0.031068801 RMS     0.009839783
 -----------------------------------------------------------------------------------------------
                       Internal Coordinate Forces (Hartree/Bohr or radian)
  Cent   Atom   N1       Length/X         N2         Alpha/Y        N3         Beta/Z          J
 -----------------------------------------------------------------------------------------------
      1  C 
      2  O        1  -0.002282(     1)
      3  H        2   0.008938(     2)      1   0.002195(    13)
      4  H        2  -0.000157(     3)      1   0.004255(    14)      3   0.000607(    24)     0
      5  H        1   0.010623(     4)      2   0.000459(    15)      3  -0.000251(    25)     0
      6  H        1   0.010199(     5)      2   0.000807(    16)      3  -0.000275(    26)     0
      7  H        1   0.006534(     6)      2  -0.070395(    17)      3   0.038931(    27)     0
      8  H        1   0.008915(     7)      2   0.067925(    18)      3   0.061774(    28)     0
      9  H        1   0.014512(     8)      2  -0.003759(    19)      3  -0.053148(    29)     0
     10  H        1   0.017853(     9)      2   0.043560(    20)      3  -0.032485(    30)     0
     11  C        1  -0.014383(    10)      2  -0.006156(    21)      3  -0.013493(    31)     0
     12  C        1  -0.007670(    11)      2  -0.031671(    22)     11   0.035678(    32)     0
     13  O       12  -0.020028(    12)      1   0.005073(    23)      2  -0.005647(    33)     0
 -----------------------------------------------------------------------------------------------
 Internal  Forces:  Max     0.070395354 RMS     0.027463843

 GradGradGradGradGradGradGradGradGradGradGradGradGradGradGradGradGradGrad
 Berny optimization.
 Search for a saddle point.
 Step number   1 out of a maximum of   42
 All quantities printed in internal units (Hartrees-Bohrs-Radians)
 Swaping is turned off.
 Second derivative matrix not updated -- analytic derivatives used.
 ITU=  0
     Eigenvalues ---   -0.10787  -0.04419   0.00174   0.00980   0.01280
     Eigenvalues ---    0.03534   0.05933   0.06228   0.07470   0.09660
     Eigenvalues ---    0.12897   0.14810   0.16011   0.23045   0.27001
     Eigenvalues ---    0.29939   0.32029   0.39443   0.40287   0.40441
     Eigenvalues ---    0.45597   0.55968   0.57402   0.78167   1.22108
     Eigenvalues ---    2.48780   3.22047   3.75860   6.34233   7.49555
     Eigenvalues ---   18.71710  22.04549
 Eigenvectors required to have negative eigenvalues:
                          D4        D5        A6        A7        A5
   1                    0.46495  -0.41535   0.33407  -0.31734   0.24997
                          A11       A10       A8        B6        B2
   1                    0.24773  -0.24137  -0.21320   0.21308   0.18765
 RFO step:  Lambda0=2.858847960D-05 Lambda=-4.42883617D-02.
 Linear search not attempted -- option 19 set.
 Maximum step size (   0.300) exceeded in Quadratic search.
    -- Step size scaled by   0.396
 Variable       Old X    -DE/DX   Delta X   Delta X   Delta X     New X
                                 (Linear)    (Quad)   (Total)
    B1        1.81414   0.00894   0.00000   0.00431   0.00431   1.81844
    B2        1.97426  -0.00016   0.00000  -0.10338  -0.10338   1.87088
    B3        2.02201   0.01062   0.00000   0.00739   0.00739   2.02940
    B4        2.02201   0.01020   0.00000   0.00418   0.00418   2.02618
    B5        5.22713   0.00653   0.00000  -0.08061  -0.08061   5.14652
    B6        5.45569   0.00891   0.00000   0.11783   0.11783   5.57352
    B7        6.49751   0.01451   0.00000  -0.01259  -0.01259   6.48492
    B8        3.96694   0.01785   0.00000   0.06427   0.06427   4.03121
    B9        4.81286  -0.01438   0.00000  -0.00268  -0.00268   4.81017
   B10        2.79110  -0.00767   0.00000  -0.01897  -0.01897   2.77214
   B11        2.70231  -0.02003   0.00000  -0.02646  -0.02646   2.67585
    A1        1.91884   0.00220   0.00000   0.05622   0.05622   1.97507
    A2        1.24581   0.00426   0.00000   0.02521   0.02521   1.27102
    A3        1.72782   0.00046   0.00000   0.02339   0.02339   1.75121
    A4        1.34168   0.00081   0.00000  -0.10027  -0.10027   1.24141
    A5        1.32938  -0.07040   0.00000   0.05862   0.05862   1.38801
    A6        1.95154   0.06792   0.00000   0.06829   0.06829   2.01982
    A7        1.67143  -0.00376   0.00000  -0.00711  -0.00711   1.66432
    A8        2.20579   0.04356   0.00000   0.06954   0.06954   2.27533
    A9        1.67409  -0.00616   0.00000   0.04170   0.04170   1.71579
   A10        1.77412  -0.03167   0.00000   0.08471   0.08471   1.85883
   A11        1.64429   0.00507   0.00000  -0.10530  -0.10530   1.53899
    D1       -1.78018   0.00061   0.00000   0.00527   0.00527  -1.77491
    D2        0.11307  -0.00025   0.00000  -0.02212  -0.02212   0.09095
    D3       -1.91851  -0.00028   0.00000  -0.01738  -0.01738  -1.93588
    D4        2.98105   0.03893   0.00000   0.05524   0.05524   3.03629
    D5        3.04522   0.06177   0.00000  -0.03616  -0.03616   3.00906
    D6        2.58092  -0.05315   0.00000  -0.00439  -0.00439   2.57654
    D7        1.93536  -0.03249   0.00000   0.00626   0.00626   1.94162
    D8        2.78226  -0.01349   0.00000   0.00425   0.00425   2.78651
    D9       -0.56801   0.03568   0.00000   0.00693   0.00693  -0.56108
   D10       -0.65904  -0.00565   0.00000  -0.02827  -0.02827  -0.68731
         Item               Value     Threshold  Converged?
 Maximum Force            0.070395     0.000450     NO 
 RMS     Force            0.027887     0.000300     NO 
 Maximum Displacement     0.117826     0.001800     NO 
 RMS     Displacement     0.053033     0.001200     NO 
 Predicted change in Energy=-4.463293D-03
 GradGradGradGradGradGradGradGradGradGradGradGradGradGradGradGradGradGrad

 ---------------------------------------------------------------------------------------------------
                            Z-MATRIX (ANGSTROMS AND DEGREES)
   CD    Cent   Atom    N1       Length/X        N2       Alpha/Y        N3        Beta/Z          J
 ---------------------------------------------------------------------------------------------------
      1      1  C 
      2      2  O        1   2.203291(     1)
      3      3  H        2   0.962279(     2)      1  113.163(    13)
      4      4  H        2   0.990028(     3)      1   72.824(    14)      3 -101.695(    24)      0
      5      5  H        1   1.073913(     4)      2  100.337(    15)      3    5.211(    25)      0
      6      6  H        1   1.072210(     5)      2   71.127(    16)      3 -110.918(    26)      0
      7      7  H        1   2.723422(     6)      2   79.527(    17)      3  173.967(    27)      0
      8      8  H        1   2.949380(     7)      2  115.727(    18)      3  172.407(    28)      0
      9      9  H        1   3.431673(     8)      2   95.358(    19)      3  147.625(    29)      0
     10     10  H        1   2.133223(     9)      2  130.367(    20)      3  111.247(    30)      0
     11     11  C        1   2.545433(    10)      2   98.307(    21)      3  159.655(    31)      0
     12     12  C        1   1.466951(    11)      2  106.503(    22)     11  -32.148(    32)      0
     13     13  O       12   1.415997(    12)      1   88.178(    23)      2  -39.380(    33)      0
 ---------------------------------------------------------------------------------------------------
                         Z-Matrix orientation:                         
 ---------------------------------------------------------------------
 Center     Atomic      Atomic             Coordinates (Angstroms)
 Number     Number       Type             X           Y           Z
 ---------------------------------------------------------------------
      1          6           0        0.000000    0.000000    0.000000
      2          8           0        0.000000    0.000000    2.203291
      3          1           0        0.884710    0.000000    2.581800
      4          1           0       -0.191725   -0.926239    1.910926
      5          1           0        1.052116   -0.095957   -0.192698
      6          1           0       -0.362233    0.947701    0.346821
      7          1           0       -2.663217   -0.281479    0.495045
      8          1           0       -2.633710   -0.351108   -1.280288
      9          1           0       -2.885585   -1.829502   -0.320474
     10          1           0       -0.588992   -1.514861   -1.381638
     11          6           0       -2.361597   -0.875688   -0.367777
     12          6           0       -0.856376   -1.115757   -0.416714
     13          8           0       -0.306982   -1.874747    0.644958
 ---------------------------------------------------------------------
                    Distance matrix (angstroms):
                    1          2          3          4          5
     1  C    0.000000
     2  O    2.203291   0.000000
     3  H    2.729176   0.962279   0.000000
     4  H    2.132210   0.990028   1.570574   0.000000
     5  H    1.073913   2.618572   2.781200   2.581036   0.000000
     6  H    1.072210   2.115616   2.729127   2.446866   1.838664
     7  H    2.723422   3.176485   4.125719   2.920396   3.783003
     8  H    2.949380   4.381213   5.236247   4.059301   3.851398
     9  H    3.431673   4.247713   5.097587   3.612743   4.304300
    10  H    2.133223   3.936169   4.491708   3.368275   2.473884
    11  C    2.545433   3.599216   4.472733   3.146965   3.506005
    12  C    1.466951   2.973671   3.642442   2.428084   2.175435
    13  O    2.006212   2.457094   2.947229   1.586072   2.390169
                    6          7          8          9         10
     6  H    0.000000
     7  H    2.612926   0.000000
     8  H    3.081233   1.776944   0.000000
     9  H    3.811226   1.763773   1.780543   0.000000
    10  H    3.017151   3.057055   2.354881   2.549394   0.000000
    11  C    2.798724   1.090194   1.087155   1.089295   2.139762
    12  C    2.255000   2.189064   2.118812   2.153226   1.077894
    13  O    2.838688   2.848301   3.382560   2.753779   2.077532
                   11         12         13
    11  C    0.000000
    12  C    1.525030   0.000000
    13  O    2.499038   1.415997   0.000000
 Symmetry turned off by external request.
 Stoichiometry    C3H8O2
 Framework group  C1[X(C3H8O2)]
 Deg. of freedom    33
 Full point group                 C1      NOp   1
 Rotational constants (GHZ):      7.3814181      3.2036220      3.0837346
 Standard basis: 6-31++G(d,p) (6D, 7F)
 The following finite field(s) will be applied:
 An electric field of              0.0000  0.0000 -0.0050
 Integral buffers will be    131072 words long.
 Raffenetti 2 integral format.
 Two-electron integral symmetry is turned off.
   143 basis functions,   224 primitive gaussians,   143 cartesian basis functions
    21 alpha electrons       21 beta electrons
       nuclear repulsion energy       189.9136925984 Hartrees.
 NAtoms=   13 NActive=   13 NUniq=   13 SFac= 1.00D+00 NAtFMM=   50 NAOKFM=F Big=F
 One-electron integrals computed using PRISM.
 PrsmSu:  requested number of processors reduced to:  10 ShMem   1 Linda.
 NBasis=   143 RedAO= T  NBF=   143
 NBsUse=   143 1.00D-06 NBFU=   143
 The nuclear repulsion energy is now       189.7224661515 hartrees.
 Initial guess read from the read-write file.
 B after Tr=     0.000000    0.000000    0.000000
         Rot=    1.000000    0.000000    0.000000    0.000000 Ang=   0.00 deg.
 Harris functional with IExCor=  402 diagonalized for initial guess.
 ExpMin= 3.60D-02 ExpMax= 5.48D+03 ExpMxC= 8.25D+02 IAcc=3 IRadAn=         0 AccDes= 0.00D+00
 HarFok:  IExCor=  402 AccDes= 0.00D+00 IRadAn=         0 IDoV= 1
 ScaDFX=  1.000000  1.000000  1.000000  1.000000
 FoFCou: FMM=F IPFlag=           0 FMFlag=      100000 FMFlg1=           0
         NFxFlg=           0 DoJE=T BraDBF=F KetDBF=T FulRan=T
         Omega=  0.000000  0.000000  1.000000  0.000000  0.000000 ICntrl=     500 IOpCl=  0
         NMat0=    1 NMatS0=    1 NMatT0=    0 NMatD0=    1 NMtDS0=    0 NMtDT0=    0
         I1Cent=           4 NGrid=           0.
 Symmetry not used in FoFCou.
 Requested convergence on RMS density matrix=1.00D-08 within 128 cycles.
 Requested convergence on MAX density matrix=1.00D-06.
 Requested convergence on             energy=1.00D-06.
 No special actions if energy rises.
 SCF Done:  E(RB3LYP) =  -269.485620396     A.U. after   13 cycles
             Convg  =    0.3596D-08             -V/T =  2.0088
 PrsmSu:  requested number of processors reduced to:  10 ShMem   1 Linda.
 PrsmSu:  requested number of processors reduced to:  23 ShMem   1 Linda.
 Calling FoFJK, ICntrl=      2127 FMM=F ISym2X=0 I1Cent= 0 IOpClX= 0 NMat=1 NMatS=1 NMatT=0.
 CoulSu:  requested number of processors reduced to:  16 ShMem   1 Linda.
 -------------------------------------------------------------------
 Center     Atomic                   Forces (Hartrees/Bohr)
 Number     Number              X              Y              Z
 -------------------------------------------------------------------
      1        6          -0.002095689   -0.013937832   -0.011442532
      2        8          -0.000662948    0.011884849    0.016986992
      3        1           0.004088328    0.000030249    0.004488401
      4        1          -0.001429385   -0.008196293    0.000986833
      5        1           0.006767110    0.000744637   -0.002170757
      6        1          -0.003224424    0.004231132    0.003178085
      7        1           0.000594763    0.001110747    0.002563780
      8        1          -0.006654551    0.003596498   -0.004674135
      9        1          -0.001576151   -0.002545374   -0.001403822
     10        1           0.004606431   -0.007849726   -0.014312771
     11        6           0.006040125   -0.001584673    0.001210248
     12        6          -0.003647809    0.000947736    0.015439660
     13        8          -0.002805801    0.011568049   -0.010849982
 -------------------------------------------------------------------
 Cartesian Forces:  Max     0.016986992 RMS     0.006970018
 -----------------------------------------------------------------------------------------------
                       Internal Coordinate Forces (Hartree/Bohr or radian)
  Cent   Atom   N1       Length/X         N2         Alpha/Y        N3         Beta/Z          J
 -----------------------------------------------------------------------------------------------
      1  C 
      2  O        1   0.022462(     1)
      3  H        2   0.005524(     2)      1   0.004580(    13)
      4  H        2   0.007654(     3)      1   0.006358(    14)      3   0.000468(    24)     0
      5  H        1   0.006953(     4)      2   0.001904(    15)      3  -0.002708(    25)     0
      6  H        1   0.005857(     5)      2  -0.002748(    16)      3  -0.002878(    26)     0
      7  H        1  -0.000230(     6)      2  -0.013637(    17)      3   0.005274(    27)     0
      8  H        1   0.007543(     7)      2   0.008660(    18)      3   0.022315(    28)     0
      9  H        1   0.002813(     8)      2   0.007432(    19)      3  -0.008431(    29)     0
     10  H        1   0.013572(     9)      2   0.029217(    20)      3  -0.021924(    30)     0
     11  C        1  -0.005234(    10)      2  -0.002207(    21)      3   0.008809(    31)     0
     12  C        1  -0.007056(    11)      2  -0.016972(    22)     11   0.025876(    32)     0
     13  O       12  -0.015424(    12)      1  -0.012232(    23)      2  -0.002091(    33)     0
 -----------------------------------------------------------------------------------------------
 Internal  Forces:  Max     0.029217231 RMS     0.012023094

 GradGradGradGradGradGradGradGradGradGradGradGradGradGradGradGradGradGrad
 Berny optimization.
 Search for a saddle point.
 Step number   2 out of a maximum of   42
 All quantities printed in internal units (Hartrees-Bohrs-Radians)
 Swaping is turned off.
 Update second derivatives using D2CorN and points    1    2
 ITU=  0  0
     Eigenvalues ---   -0.11231  -0.02534   0.00194   0.00984   0.01284
     Eigenvalues ---    0.03546   0.06029   0.06241   0.07474   0.10113
     Eigenvalues ---    0.12899   0.14811   0.16012   0.23061   0.27013
     Eigenvalues ---    0.29944   0.31994   0.39442   0.40289   0.40447
     Eigenvalues ---    0.45635   0.55972   0.57405   0.78165   1.22145
     Eigenvalues ---    2.48773   3.22055   3.75859   6.34214   7.49975
     Eigenvalues ---   18.71767  22.04549
 Eigenvectors required to have negative eigenvalues:
                          D4        D5        A11       A7        A10
   1                    0.41222  -0.37817   0.33869  -0.31071  -0.30876
                          A6        A8        A4        B2        A5
   1                    0.27295  -0.25844   0.25438   0.24745   0.19022
 RFO step:  Lambda0=2.247792479D-03 Lambda=-2.76238539D-02.
 Linear search not attempted -- option 19 set.
 Maximum step size (   0.300) exceeded in Quadratic search.
    -- Step size scaled by   0.390
 Variable       Old X    -DE/DX   Delta X   Delta X   Delta X     New X
                                 (Linear)    (Quad)   (Total)
    B1        1.81844   0.00552   0.00000   0.00264   0.00264   1.82108
    B2        1.87088   0.00765   0.00000  -0.00676  -0.00676   1.86412
    B3        2.02940   0.00695   0.00000   0.00463   0.00463   2.03404
    B4        2.02618   0.00586   0.00000   0.00191   0.00191   2.02809
    B5        5.14652  -0.00023   0.00000  -0.09828  -0.09828   5.04824
    B6        5.57352   0.00754   0.00000   0.16100   0.16100   5.73452
    B7        6.48492   0.00281   0.00000  -0.02805  -0.02805   6.45687
    B8        4.03121   0.01357   0.00000   0.05020   0.05020   4.08141
    B9        4.81017  -0.00523   0.00000   0.00239   0.00239   4.81256
   B10        2.77214  -0.00706   0.00000  -0.01011  -0.01011   2.76203
   B11        2.67585  -0.01542   0.00000  -0.01005  -0.01005   2.66579
    A1        1.97507   0.00458   0.00000   0.04847   0.04847   2.02353
    A2        1.27102   0.00636   0.00000   0.00352   0.00352   1.27454
    A3        1.75121   0.00190   0.00000   0.01391   0.01391   1.76512
    A4        1.24141  -0.00275   0.00000  -0.05609  -0.05609   1.18532
    A5        1.38801  -0.01364   0.00000   0.09056   0.09056   1.47857
    A6        2.01982   0.00866   0.00000   0.09580   0.09580   2.11562
    A7        1.66432   0.00743   0.00000  -0.01816  -0.01816   1.64616
    A8        2.27533   0.02922   0.00000   0.02813   0.02813   2.30345
    A9        1.71579  -0.00221   0.00000   0.05283   0.05283   1.76861
   A10        1.85883  -0.01697   0.00000   0.05808   0.05808   1.91691
   A11        1.53899  -0.01223   0.00000  -0.07923  -0.07923   1.45976
    D1       -1.77491   0.00047   0.00000  -0.00812  -0.00812  -1.78303
    D2        0.09095  -0.00271   0.00000  -0.02591  -0.02591   0.06504
    D3       -1.93588  -0.00288   0.00000  -0.02274  -0.02274  -1.95862
    D4        3.03629   0.00527   0.00000   0.08977   0.08977   3.12606
    D5        3.00906   0.02232   0.00000  -0.06252  -0.06252   2.94654
    D6        2.57654  -0.00843   0.00000   0.00050   0.00050   2.57704
    D7        1.94162  -0.02192   0.00000  -0.02305  -0.02305   1.91857
    D8        2.78651   0.00881   0.00000   0.00824   0.00824   2.79475
    D9       -0.56108   0.02588   0.00000   0.00216   0.00216  -0.55893
   D10       -0.68731  -0.00209   0.00000   0.01887   0.01887  -0.66844
         Item               Value     Threshold  Converged?
 Maximum Force            0.029217     0.000450     NO 
 RMS     Force            0.011546     0.000300     NO 
 Maximum Displacement     0.161003     0.001800     NO 
 RMS     Displacement     0.053033     0.001200     NO 
 Predicted change in Energy=-3.488357D-03
 GradGradGradGradGradGradGradGradGradGradGradGradGradGradGradGradGradGrad

 ---------------------------------------------------------------------------------------------------
                            Z-MATRIX (ANGSTROMS AND DEGREES)
   CD    Cent   Atom    N1       Length/X        N2       Alpha/Y        N3        Beta/Z          J
 ---------------------------------------------------------------------------------------------------
      1      1  C 
      2      2  O        1   2.203291(     1)
      3      3  H        2   0.963674(     2)      1  115.940(    13)
      4      4  H        2   0.986451(     3)      1   73.026(    14)      3 -102.160(    24)      0
      5      5  H        1   1.076365(     4)      2  101.134(    15)      3    3.727(    25)      0
      6      6  H        1   1.073220(     5)      2   67.914(    16)      3 -112.221(    26)      0
      7      7  H        1   2.671414(     6)      2   84.716(    17)      3  179.110(    27)      0
      8      8  H        1   3.034579(     7)      2  121.216(    18)      3  168.824(    28)      0
      9      9  H        1   3.416828(     8)      2   94.318(    19)      3  147.653(    29)      0
     10     10  H        1   2.159790(     9)      2  131.978(    20)      3  109.926(    30)      0
     11     11  C        1   2.546698(    10)      2  101.334(    21)      3  160.127(    31)      0
     12     12  C        1   1.461601(    11)      2  109.831(    22)     11  -32.024(    32)      0
     13     13  O       12   1.410678(    12)      1   83.638(    23)      2  -38.299(    33)      0
 ---------------------------------------------------------------------------------------------------
                         Z-Matrix orientation:                         
 ---------------------------------------------------------------------
 Center     Atomic      Atomic             Coordinates (Angstroms)
 Number     Number       Type             X           Y           Z
 ---------------------------------------------------------------------
      1          6           0        0.000000    0.000000    0.000000
      2          8           0        0.000000    0.000000    2.203291
      3          1           0        0.866588    0.000000    2.624826
      4          1           0       -0.198733   -0.922310    1.915305
      5          1           0        1.053873   -0.068643   -0.207852
      6          1           0       -0.376086    0.920610    0.403529
      7          1           0       -2.659740   -0.041306    0.246031
      8          1           0       -2.546010   -0.503010   -1.572732
      9          1           0       -2.878430   -1.822957   -0.257255
     10          1           0       -0.547190   -1.509469   -1.444568
     11          6           0       -2.348334   -0.848818   -0.500503
     12          6           0       -0.848437   -1.081932   -0.495837
     13          8           0       -0.304287   -1.796118    0.592213
 ---------------------------------------------------------------------
                    Distance matrix (angstroms):
                    1          2          3          4          5
     1  C    0.000000
     2  O    2.203291   0.000000
     3  H    2.764180   0.963674   0.000000
     4  H    2.135075   0.986451   1.577652   0.000000
     5  H    1.076365   2.632293   2.839693   2.608748   0.000000
     6  H    1.073220   2.056236   2.706644   2.390246   1.843147
     7  H    2.671414   3.302543   4.253864   3.101483   3.741347
     8  H    3.034579   4.581870   5.433078   4.225154   3.874368
     9  H    3.416828   4.202715   5.065049   3.565383   4.306165
    10  H    2.159790   3.985572   4.564782   3.428546   2.483717
    11  C    2.546698   3.680444   4.563321   3.234550   3.502760
    12  C    1.461601   3.029144   3.721616   2.502239   2.174505
    13  O    1.915553   2.431913   2.954404   1.589105   2.338561
                    6          7          8          9         10
     6  H    0.000000
     7  H    2.482975   0.000000
     8  H    3.262035   1.879895   0.000000
     9  H    3.771674   1.864243   1.892946   0.000000
    10  H    3.057782   3.078392   2.241577   2.634894   0.000000
    11  C    2.799627   1.142962   1.143824   1.135394   2.138186
    12  C    2.245474   2.216775   2.092035   2.174146   1.083342
    13  O    2.724219   2.957594   3.374083   2.710816   2.071146
                   11         12         13
    11  C    0.000000
    12  C    1.517912   0.000000
    13  O    2.503904   1.410678   0.000000
 Symmetry turned off by external request.
 Stoichiometry    C3H8O2
 Framework group  C1[X(C3H8O2)]
 Deg. of freedom    33
 Full point group                 C1      NOp   1
 Rotational constants (GHZ):      7.8081945      3.1232396      3.0158712
 Standard basis: 6-31++G(d,p) (6D, 7F)
 The following finite field(s) will be applied:
 An electric field of              0.0000  0.0000 -0.0050
 Integral buffers will be    131072 words long.
 Raffenetti 2 integral format.
 Two-electron integral symmetry is turned off.
   143 basis functions,   224 primitive gaussians,   143 cartesian basis functions
    21 alpha electrons       21 beta electrons
       nuclear repulsion energy       189.8908714856 Hartrees.
 NAtoms=   13 NActive=   13 NUniq=   13 SFac= 1.00D+00 NAtFMM=   50 NAOKFM=F Big=F
 One-electron integrals computed using PRISM.
 PrsmSu:  requested number of processors reduced to:  10 ShMem   1 Linda.
 NBasis=   143 RedAO= T  NBF=   143
 NBsUse=   143 1.00D-06 NBFU=   143
 The nuclear repulsion energy is now       189.7199148228 hartrees.
 Initial guess read from the read-write file.
 B after Tr=     0.000000    0.000000    0.000000
         Rot=    1.000000    0.000000    0.000000    0.000000 Ang=   0.00 deg.
 Harris functional with IExCor=  402 diagonalized for initial guess.
 ExpMin= 3.60D-02 ExpMax= 5.48D+03 ExpMxC= 8.25D+02 IAcc=3 IRadAn=         0 AccDes= 0.00D+00
 HarFok:  IExCor=  402 AccDes= 0.00D+00 IRadAn=         0 IDoV= 1
 ScaDFX=  1.000000  1.000000  1.000000  1.000000
 FoFCou: FMM=F IPFlag=           0 FMFlag=      100000 FMFlg1=           0
         NFxFlg=           0 DoJE=T BraDBF=F KetDBF=T FulRan=T
         Omega=  0.000000  0.000000  1.000000  0.000000  0.000000 ICntrl=     500 IOpCl=  0
         NMat0=    1 NMatS0=    1 NMatT0=    0 NMatD0=    1 NMtDS0=    0 NMtDT0=    0
         I1Cent=           4 NGrid=           0.
 Symmetry not used in FoFCou.
 Requested convergence on RMS density matrix=1.00D-08 within 128 cycles.
 Requested convergence on MAX density matrix=1.00D-06.
 Requested convergence on             energy=1.00D-06.
 No special actions if energy rises.
 SCF Done:  E(RB3LYP) =  -269.483367224     A.U. after   12 cycles
             Convg  =    0.9604D-08             -V/T =  2.0093
 PrsmSu:  requested number of processors reduced to:  10 ShMem   1 Linda.
 PrsmSu:  requested number of processors reduced to:  23 ShMem   1 Linda.
 Calling FoFJK, ICntrl=      2127 FMM=F ISym2X=0 I1Cent= 0 IOpClX= 0 NMat=1 NMatS=1 NMatT=0.
 CoulSu:  requested number of processors reduced to:  16 ShMem   1 Linda.
 -------------------------------------------------------------------
 Center     Atomic                   Forces (Hartrees/Bohr)
 Number     Number              X              Y              Z
 -------------------------------------------------------------------
      1        6           0.001086411   -0.020025307   -0.020064825
      2        8           0.002174869    0.010598855    0.029258899
      3        1           0.001455926   -0.000882221    0.004699999
      4        1           0.000220279   -0.002307057    0.003635900
      5        1           0.004716121    0.001895691   -0.001600687
      6        1          -0.003444364    0.001152735    0.002728974
      7        1           0.005124421   -0.021280395   -0.018211302
      8        1          -0.008536508   -0.006803890    0.026611879
      9        1           0.008113254    0.022668183   -0.008590484
     10        1           0.004379884   -0.005482565   -0.010017961
     11        6          -0.012839424    0.007065248   -0.004779502
     12        6          -0.001949296   -0.001123733    0.005095278
     13        8          -0.000501572    0.014524456   -0.008766169
 -------------------------------------------------------------------
 Cartesian Forces:  Max     0.029258899 RMS     0.011172817
 -----------------------------------------------------------------------------------------------
                       Internal Coordinate Forces (Hartree/Bohr or radian)
  Cent   Atom   N1       Length/X         N2         Alpha/Y        N3         Beta/Z          J
 -----------------------------------------------------------------------------------------------
      1  C 
      2  O        1   0.037595(     1)
      3  H        2   0.003365(     2)      1   0.006537(    13)
      4  H        2   0.001051(     3)      1   0.007685(    14)      3   0.001250(    24)     0
      5  H        1   0.004806(     4)      2   0.001394(    15)      3  -0.004387(    25)     0
      6  H        1   0.003222(     5)      2  -0.003321(    16)      3  -0.005173(    26)     0
      7  H        1  -0.006450(     6)      2   0.089316(    17)      3  -0.107359(    27)     0
      8  H        1  -0.005502(     7)      2  -0.159321(    18)      3  -0.024621(    28)     0
      9  H        1  -0.018282(     8)      2   0.064538(    19)      3   0.095353(    29)     0
     10  H        1   0.009423(     9)      2   0.020400(    20)      3  -0.018163(    30)     0
     11  C        1   0.010424(    10)      2   0.013404(    21)      3   0.064186(    31)     0
     12  C        1  -0.007252(    11)      2  -0.001115(    22)     11   0.012238(    32)     0
     13  O       12  -0.014308(    12)      1  -0.024334(    23)      2  -0.000278(    33)     0
 -----------------------------------------------------------------------------------------------
 Internal  Forces:  Max     0.159320639 RMS     0.045066030

 GradGradGradGradGradGradGradGradGradGradGradGradGradGradGradGradGradGrad
 Berny optimization.
 Search for a saddle point.
 Step number   3 out of a maximum of   42
 All quantities printed in internal units (Hartrees-Bohrs-Radians)
 Swaping is turned off.
 Update second derivatives using D2CorN and points    1    2    3
 ITU=  0  0  0
     Eigenvalues ---   -0.22381   0.00117   0.00972   0.01270   0.02960
     Eigenvalues ---    0.03868   0.06145   0.07474   0.09704   0.12330
     Eigenvalues ---    0.14691   0.16010   0.22080   0.23583   0.27832
     Eigenvalues ---    0.30064   0.32021   0.39541   0.40289   0.40624
     Eigenvalues ---    0.45747   0.55991   0.57450   0.78440   1.22245
     Eigenvalues ---    2.48777   3.22137   3.75880   6.34304   7.53364
     Eigenvalues ---   18.72254  22.04549
 Eigenvectors required to have negative eigenvalues:
                          A11       A10       B6        A4        A7
   1                    0.43174  -0.39000  -0.30645   0.29905  -0.28752
                          A8        D5        D4        B2        B8
   1                   -0.26211  -0.24197   0.22574   0.21979  -0.19296
 RFO step:  Lambda0=2.735028915D-02 Lambda=-3.02665672D-02.
 Linear search not attempted -- option 19 set.
 Maximum step size (   0.300) exceeded in Quadratic search.
    -- Step size scaled by   0.674
 Variable       Old X    -DE/DX   Delta X   Delta X   Delta X     New X
                                 (Linear)    (Quad)   (Total)
    B1        1.82108   0.00337   0.00000   0.00591   0.00591   1.82698
    B2        1.86412   0.00105   0.00000   0.09349   0.09349   1.95761
    B3        2.03404   0.00481   0.00000   0.00924   0.00924   2.04327
    B4        2.02809   0.00322   0.00000   0.01272   0.01272   2.04081
    B5        5.04824  -0.00645   0.00000   0.07041   0.07041   5.11866
    B6        5.73452  -0.00550   0.00000  -0.09051  -0.09051   5.64402
    B7        6.45687  -0.01828   0.00000   0.02587   0.02587   6.48273
    B8        4.08141   0.00942   0.00000  -0.05108  -0.05108   4.03034
    B9        4.81256   0.01042   0.00000  -0.00267  -0.00267   4.80989
   B10        2.76203  -0.00725   0.00000   0.02285   0.02285   2.78487
   B11        2.66579  -0.01431   0.00000  -0.02533  -0.02533   2.64046
    A1        2.02353   0.00654   0.00000  -0.04149  -0.04149   1.98204
    A2        1.27454   0.00768   0.00000  -0.00684  -0.00684   1.26770
    A3        1.76512   0.00139   0.00000  -0.03431  -0.03431   1.73081
    A4        1.18532  -0.00332   0.00000   0.11937   0.11937   1.30469
    A5        1.47857   0.08932   0.00000  -0.05944  -0.05944   1.41913
    A6        2.11562  -0.15932   0.00000  -0.06246  -0.06246   2.05316
    A7        1.64616   0.06454   0.00000  -0.00197  -0.00197   1.64418
    A8        2.30345   0.02040   0.00000  -0.06809  -0.06809   2.23536
    A9        1.76861   0.01340   0.00000  -0.04316  -0.04316   1.72545
   A10        1.91691  -0.00111   0.00000  -0.09629  -0.09629   1.82062
   A11        1.45976  -0.02433   0.00000   0.13267   0.13267   1.59243
    D1       -1.78303   0.00125   0.00000  -0.00722  -0.00722  -1.79025
    D2        0.06504  -0.00439   0.00000   0.02574   0.02574   0.09078
    D3       -1.95862  -0.00517   0.00000   0.02024   0.02024  -1.93839
    D4        3.12606  -0.10736   0.00000  -0.04327  -0.04327   3.08280
    D5        2.94654  -0.02462   0.00000   0.03226   0.03226   2.97879
    D6        2.57704   0.09535   0.00000   0.00383   0.00383   2.58087
    D7        1.91857  -0.01816   0.00000  -0.01335  -0.01335   1.90521
    D8        2.79475   0.06419   0.00000  -0.00364  -0.00364   2.79111
    D9       -0.55893   0.01224   0.00000  -0.01175  -0.01175  -0.57068
   D10       -0.66844  -0.00028   0.00000   0.03150   0.03150  -0.63694
         Item               Value     Threshold  Converged?
 Maximum Force            0.159321     0.000450     NO 
 RMS     Force            0.045280     0.000300     NO 
 Maximum Displacement     0.132670     0.001800     NO 
 RMS     Displacement     0.053033     0.001200     NO 
 Predicted change in Energy=-1.238765D-03
 GradGradGradGradGradGradGradGradGradGradGradGradGradGradGradGradGradGrad

 ---------------------------------------------------------------------------------------------------
                            Z-MATRIX (ANGSTROMS AND DEGREES)
   CD    Cent   Atom    N1       Length/X        N2       Alpha/Y        N3        Beta/Z          J
 ---------------------------------------------------------------------------------------------------
      1      1  C 
      2      2  O        1   2.203291(     1)
      3      3  H        2   0.966799(     2)      1  113.563(    13)
      4      4  H        2   1.035924(     3)      1   72.634(    14)      3 -102.574(    24)      0
      5      5  H        1   1.081254(     4)      2   99.168(    15)      3    5.201(    25)      0
      6      6  H        1   1.079949(     5)      2   74.753(    16)      3 -111.061(    26)      0
      7      7  H        1   2.708676(     6)      2   81.310(    17)      3  176.631(    27)      0
      8      8  H        1   2.986686(     7)      2  117.637(    18)      3  170.672(    28)      0
      9      9  H        1   3.430515(     8)      2   94.205(    19)      3  147.873(    29)      0
     10     10  H        1   2.132762(     9)      2  128.077(    20)      3  109.161(    30)      0
     11     11  C        1   2.545286(    10)      2   98.861(    21)      3  159.919(    31)      0
     12     12  C        1   1.473690(    11)      2  104.314(    22)     11  -32.698(    32)      0
     13     13  O       12   1.397272(    12)      1   91.239(    23)      2  -36.494(    33)      0
 ---------------------------------------------------------------------------------------------------
                         Z-Matrix orientation:                         
 ---------------------------------------------------------------------
 Center     Atomic      Atomic             Coordinates (Angstroms)
 Number     Number       Type             X           Y           Z
 ---------------------------------------------------------------------
      1          6           0        0.000000    0.000000    0.000000
      2          8           0        0.000000    0.000000    2.203291
      3          1           0        0.886190    0.000000    2.589770
      4          1           0       -0.215233   -0.964992    1.894091
      5          1           0        1.063045   -0.096769   -0.172283
      6          1           0       -0.374438    0.972333    0.283998
      7          1           0       -2.672954   -0.157341    0.409255
      8          1           0       -2.610923   -0.428853   -1.385445
      9          1           0       -2.897378   -1.819443   -0.251529
     10          1           0       -0.551039   -1.585867   -1.315315
     11          6           0       -2.362021   -0.863492   -0.392070
     12          6           0       -0.863753   -1.137079   -0.364341
     13          8           0       -0.387835   -1.884046    0.716359
 ---------------------------------------------------------------------
                    Distance matrix (angstroms):
                    1          2          3          4          5
     1  C    0.000000
     2  O    2.203291   0.000000
     3  H    2.737196   0.966799   0.000000
     4  H    2.136613   1.035924   1.621206   0.000000
     5  H    1.081254   2.604377   2.769400   2.580253   0.000000
     6  H    1.079949   2.183877   2.801999   2.524079   1.848656
     7  H    2.708676   3.223042   4.176950   2.982856   3.781473
     8  H    2.986686   4.458683   5.311878   4.096600   3.883308
     9  H    3.430515   4.210856   5.069392   3.539446   4.319587
    10  H    2.132762   3.898616   4.453122   3.286114   2.475723
    11  C    2.545286   3.613954   4.493091   3.137760   3.516710
    12  C    1.473690   2.937984   3.616907   2.355994   2.198109
    13  O    2.052612   2.431257   2.946598   1.503831   2.467609
                    6          7          8          9         10
     6  H    0.000000
     7  H    2.564182   0.000000
     8  H    3.122856   1.816181   0.000000
     9  H    3.800793   1.802660   1.817020   0.000000
    10  H    3.022148   3.085020   2.363624   2.586794   0.000000
    11  C    2.788873   1.112407   1.112500   1.104626   2.157281
    12  C    2.260396   2.198078   2.144025   2.148017   1.097065
    13  O    2.888947   2.880554   3.387814   2.690499   2.059914
                   11         12         13
    11  C    0.000000
    12  C    1.523295   0.000000
    13  O    2.483457   1.397272   0.000000
 Symmetry turned off by external request.
 Stoichiometry    C3H8O2
 Framework group  C1[X(C3H8O2)]
 Deg. of freedom    33
 Full point group                 C1      NOp   1
 Rotational constants (GHZ):      7.4138595      3.2067347      3.0842226
 Standard basis: 6-31++G(d,p) (6D, 7F)
 The following finite field(s) will be applied:
 An electric field of              0.0000  0.0000 -0.0050
 Integral buffers will be    131072 words long.
 Raffenetti 2 integral format.
 Two-electron integral symmetry is turned off.
   143 basis functions,   224 primitive gaussians,   143 cartesian basis functions
    21 alpha electrons       21 beta electrons
       nuclear repulsion energy       189.6066743733 Hartrees.
 NAtoms=   13 NActive=   13 NUniq=   13 SFac= 1.00D+00 NAtFMM=   50 NAOKFM=F Big=F
 One-electron integrals computed using PRISM.
 PrsmSu:  requested number of processors reduced to:  10 ShMem   1 Linda.
 NBasis=   143 RedAO= T  NBF=   143
 NBsUse=   143 1.00D-06 NBFU=   143
 The nuclear repulsion energy is now       189.4094694215 hartrees.
 Initial guess read from the read-write file.
 B after Tr=     0.000000    0.000000    0.000000
         Rot=    1.000000    0.000000    0.000000    0.000000 Ang=   0.00 deg.
 Harris functional with IExCor=  402 diagonalized for initial guess.
 ExpMin= 3.60D-02 ExpMax= 5.48D+03 ExpMxC= 8.25D+02 IAcc=3 IRadAn=         0 AccDes= 0.00D+00
 HarFok:  IExCor=  402 AccDes= 0.00D+00 IRadAn=         0 IDoV= 1
 ScaDFX=  1.000000  1.000000  1.000000  1.000000
 FoFCou: FMM=F IPFlag=           0 FMFlag=      100000 FMFlg1=           0
         NFxFlg=           0 DoJE=T BraDBF=F KetDBF=T FulRan=T
         Omega=  0.000000  0.000000  1.000000  0.000000  0.000000 ICntrl=     500 IOpCl=  0
         NMat0=    1 NMatS0=    1 NMatT0=    0 NMatD0=    1 NMtDS0=    0 NMtDT0=    0
         I1Cent=           4 NGrid=           0.
 Symmetry not used in FoFCou.
 Requested convergence on RMS density matrix=1.00D-08 within 128 cycles.
 Requested convergence on MAX density matrix=1.00D-06.
 Requested convergence on             energy=1.00D-06.
 No special actions if energy rises.
 SCF Done:  E(RB3LYP) =  -269.483983416     A.U. after   13 cycles
             Convg  =    0.7216D-08             -V/T =  2.0095
 PrsmSu:  requested number of processors reduced to:  10 ShMem   1 Linda.
 PrsmSu:  requested number of processors reduced to:  23 ShMem   1 Linda.
 Calling FoFJK, ICntrl=      2127 FMM=F ISym2X=0 I1Cent= 0 IOpClX= 0 NMat=1 NMatS=1 NMatT=0.
 CoulSu:  requested number of processors reduced to:  16 ShMem   1 Linda.
 -------------------------------------------------------------------
 Center     Atomic                   Forces (Hartrees/Bohr)
 Number     Number              X              Y              Z
 -------------------------------------------------------------------
      1        6          -0.000652509   -0.004260700   -0.003951913
      2        8          -0.002271167   -0.004223943    0.003073533
      3        1           0.000891887   -0.000369155    0.001745194
      4        1           0.002159244    0.008992240    0.003515727
      5        1           0.001764245   -0.000299252   -0.000132800
      6        1          -0.000580123    0.001378948    0.001957223
      7        1           0.002819440   -0.008249748   -0.007459777
      8        1          -0.002779780   -0.002914630    0.009202184
      9        1           0.001512022    0.007037831   -0.002331150
     10        1           0.000332496   -0.002304928   -0.005384741
     11        6          -0.005104433    0.003660065   -0.001385762
     12        6           0.002434284    0.001789399    0.002368607
     13        8          -0.000525607   -0.000236128   -0.001216325
 -------------------------------------------------------------------
 Cartesian Forces:  Max     0.009202184 RMS     0.003789128
 -----------------------------------------------------------------------------------------------
                       Internal Coordinate Forces (Hartree/Bohr or radian)
  Cent   Atom   N1       Length/X         N2         Alpha/Y        N3         Beta/Z          J
 -----------------------------------------------------------------------------------------------
      1  C 
      2  O        1   0.008334(     1)
      3  H        2   0.001515(     2)      1   0.002271(    13)
      4  H        2  -0.009875(     3)      1   0.001166(    14)      3   0.000280(    24)     0
      5  H        1   0.001782(     4)      2  -0.000313(    15)      3   0.000279(    25)     0
      6  H        1   0.001957(     5)      2  -0.003051(    16)      3  -0.000090(    26)     0
      7  H        1  -0.003430(     6)      2   0.035944(    17)      3  -0.042509(    27)     0
      8  H        1  -0.001420(     7)      2  -0.054430(    18)      3  -0.012128(    28)     0
      9  H        1  -0.004839(     8)      2   0.017459(    19)      3   0.033335(    29)     0
     10  H        1   0.004949(     9)      2   0.011943(    20)      3  -0.003397(    30)     0
     11  C        1   0.003709(    10)      2   0.003965(    21)      3   0.024055(    31)     0
     12  C        1  -0.002602(    11)      2   0.000276(    22)     11  -0.000612(    32)     0
     13  O       12  -0.000994(    12)      1   0.002146(    23)      2  -0.001069(    33)     0
 -----------------------------------------------------------------------------------------------
 Internal  Forces:  Max     0.054429676 RMS     0.016194825

 GradGradGradGradGradGradGradGradGradGradGradGradGradGradGradGradGradGrad
 Berny optimization.
 Search for a saddle point.
 Step number   4 out of a maximum of   42
 All quantities printed in internal units (Hartrees-Bohrs-Radians)
 Swaping is turned off.
 Update second derivatives using D2CorN and points    1    2    3    4
 ITU=  0  0  0  0
     Eigenvalues ---   -0.19873   0.00031   0.00982   0.01109   0.01496
     Eigenvalues ---    0.03652   0.06157   0.07538   0.10719   0.12040
     Eigenvalues ---    0.14719   0.16010   0.21337   0.23874   0.28280
     Eigenvalues ---    0.30093   0.32849   0.39578   0.40233   0.40630
     Eigenvalues ---    0.46020   0.55967   0.58080   0.78455   1.22144
     Eigenvalues ---    2.48784   3.22141   3.75965   6.34122   7.54491
     Eigenvalues ---   18.72322  22.04549
 Eigenvectors required to have negative eigenvalues:
                          B6        A11       A10       A7        A4
   1                    0.42072  -0.41518   0.37865   0.28687  -0.24153
                          A8        B5        D5        A1        B8
   1                    0.22240  -0.22239   0.21940   0.20206   0.20051
 RFO step:  Lambda0=2.861840203D-03 Lambda=-4.55034685D-03.
 Linear search not attempted -- option 19 set.
 Variable       Old X    -DE/DX   Delta X   Delta X   Delta X     New X
                                 (Linear)    (Quad)   (Total)
    B1        1.82698   0.00152   0.00000   0.00254   0.00254   1.82953
    B2        1.95761  -0.00987   0.00000  -0.03703  -0.03703   1.92058
    B3        2.04327   0.00178   0.00000   0.00389   0.00389   2.04716
    B4        2.04081   0.00196   0.00000   0.00498   0.00498   2.04579
    B5        5.11866  -0.00343   0.00000   0.05037   0.05037   5.16903
    B6        5.64402  -0.00142   0.00000  -0.07386  -0.07386   5.57016
    B7        6.48273  -0.00484   0.00000   0.02543   0.02543   6.50817
    B8        4.03034   0.00495   0.00000  -0.01338  -0.01338   4.01695
    B9        4.80989   0.00371   0.00000   0.00119   0.00119   4.81108
   B10        2.78487  -0.00260   0.00000   0.00349   0.00349   2.78836
   B11        2.64046  -0.00099   0.00000  -0.01477  -0.01477   2.62569
    A1        1.98204   0.00227   0.00000  -0.01100  -0.01100   1.97104
    A2        1.26770   0.00117   0.00000   0.01814   0.01814   1.28584
    A3        1.73081  -0.00031   0.00000   0.01920   0.01920   1.75002
    A4        1.30469  -0.00305   0.00000   0.00485   0.00485   1.30954
    A5        1.41913   0.03594   0.00000  -0.09075  -0.09075   1.32837
    A6        2.05316  -0.05443   0.00000  -0.08781  -0.08781   1.96535
    A7        1.64418   0.01746   0.00000  -0.04221  -0.04221   1.60197
    A8        2.23536   0.01194   0.00000  -0.00167  -0.00167   2.23369
    A9        1.72545   0.00396   0.00000  -0.07331  -0.07331   1.65214
   A10        1.82062   0.00028   0.00000  -0.04706  -0.04706   1.77355
   A11        1.59243   0.00215   0.00000   0.04090   0.04090   1.63333
    D1       -1.79025   0.00028   0.00000   0.01318   0.01318  -1.77707
    D2        0.09078   0.00028   0.00000   0.05159   0.05159   0.14237
    D3       -1.93839  -0.00009   0.00000   0.05287   0.05287  -1.88552
    D4        3.08280  -0.04251   0.00000  -0.01664  -0.01664   3.06615
    D5        2.97879  -0.01213   0.00000   0.04406   0.04406   3.02286
    D6        2.58087   0.03334   0.00000   0.01990   0.01990   2.60076
    D7        1.90521  -0.00340   0.00000   0.08889   0.08889   1.99410
    D8        2.79111   0.02405   0.00000   0.01676   0.01676   2.80788
    D9       -0.57068  -0.00061   0.00000   0.00651   0.00651  -0.56418
   D10       -0.63694  -0.00107   0.00000  -0.07715  -0.07715  -0.71409
         Item               Value     Threshold  Converged?
 Maximum Force            0.054430     0.000450     NO 
 RMS     Force            0.016380     0.000300     NO 
 Maximum Displacement     0.090752     0.001800     NO 
 RMS     Displacement     0.043562     0.001200     NO 
 Predicted change in Energy=-9.297981D-04
 GradGradGradGradGradGradGradGradGradGradGradGradGradGradGradGradGradGrad

 ---------------------------------------------------------------------------------------------------
                            Z-MATRIX (ANGSTROMS AND DEGREES)
   CD    Cent   Atom    N1       Length/X        N2       Alpha/Y        N3        Beta/Z          J
 ---------------------------------------------------------------------------------------------------
      1      1  C 
      2      2  O        1   2.203291(     1)
      3      3  H        2   0.968144(     2)      1  112.932(    13)
      4      4  H        2   1.016326(     3)      1   73.673(    14)      3 -101.818(    24)      0
      5      5  H        1   1.083311(     4)      2  100.269(    15)      3    8.157(    25)      0
      6      6  H        1   1.082584(     5)      2   75.031(    16)      3 -108.032(    26)      0
      7      7  H        1   2.735333(     6)      2   76.110(    17)      3  175.678(    27)      0
      8      8  H        1   2.947602(     7)      2  112.606(    18)      3  173.197(    28)      0
      9      9  H        1   3.443974(     8)      2   91.786(    19)      3  149.013(    29)      0
     10     10  H        1   2.125680(     9)      2  127.981(    20)      3  114.254(    30)      0
     11     11  C        1   2.545915(    10)      2   94.661(    21)      3  160.879(    31)      0
     12     12  C        1   1.475535(    11)      2  101.617(    22)     11  -32.325(    32)      0
     13     13  O       12   1.389457(    12)      1   93.583(    23)      2  -40.914(    33)      0
 ---------------------------------------------------------------------------------------------------
                         Z-Matrix orientation:                         
 ---------------------------------------------------------------------
 Center     Atomic      Atomic             Coordinates (Angstroms)
 Number     Number       Type             X           Y           Z
 ---------------------------------------------------------------------
[...]
 Vib (V=0)    3  0.123667D+01          0.092255          0.212424
 Vib (V=0)    4  0.119006D+01          0.075568          0.174002
 Vib (V=0)    5  0.115666D+01          0.063207          0.145540
 Vib (V=0)    6  0.112169D+01          0.049873          0.114836
 Vib (V=0)    7  0.109116D+01          0.037890          0.087244
 Vib (V=0)    8  0.106542D+01          0.027522          0.063372
 Electronic      0.100000D+01          0.000000          0.000000
 Translational   0.260690D+08          7.416125         17.076259
 Rotational      0.100825D+06          5.003569         11.521144
 -------------------------------------------------------------------
 Center     Atomic                   Forces (Hartrees/Bohr)
 Number     Number              X              Y              Z
 -------------------------------------------------------------------
      1        6           0.000706658    0.001350810    0.006921037
      2        8          -0.000728081   -0.001205510   -0.006914424
      3        1           0.000003141   -0.000121974    0.000008258
      4        1           0.000006528   -0.000006139    0.000014583
      5        1           0.000009142    0.000000194   -0.000005133
      6        1          -0.000002472    0.000008401    0.000007259
      7        1           0.000054500   -0.000014731   -0.000022941
      8        1          -0.000024706    0.000010791    0.000015563
      9        1          -0.000002308    0.000007411   -0.000010989
     10        1          -0.000007755   -0.000002659    0.000018228
     11        6          -0.000025121   -0.000007662   -0.000023902
     12        6           0.000038400   -0.000051323    0.000031719
     13        8          -0.000027925    0.000032391   -0.000039258
 -------------------------------------------------------------------
 Cartesian Forces:  Max     0.006921037 RMS     0.001601665
 -----------------------------------------------------------------------------------------------
                       Internal Coordinate Forces (Hartree/Bohr or radian)
  Cent   Atom   N1       Length/X         N2         Alpha/Y        N3         Beta/Z          J
 -----------------------------------------------------------------------------------------------
      1  C 
      2  O        1  -0.006892(     1)
      3  H        2   0.000006(     2)      1   0.000012(    13)
      4  H        2   0.000000(     3)      1   0.000030(    14)      3   0.000015(    24)     0
      5  H        1   0.000010(     4)      2   0.000007(    15)      3  -0.000004(    25)     0
      6  H        1   0.000010(     5)      2  -0.000011(    16)      3   0.000000(    26)     0
      7  H        1  -0.000057(     6)      2   0.000030(    17)      3  -0.000103(    27)     0
      8  H        1   0.000018(     7)      2  -0.000123(    18)      3   0.000058(    28)     0
      9  H        1  -0.000001(     8)      2   0.000072(    19)      3   0.000050(    29)     0
     10  H        1  -0.000006(     9)      2  -0.000073(    20)      3   0.000019(    30)     0
     11  C        1   0.000027(    10)      2   0.000109(    21)      3  -0.000041(    31)     0
     12  C        1   0.000009(    11)      2   0.000029(    22)     11  -0.000041(    32)     0
     13  O       12  -0.000057(    12)      1   0.000017(    23)      2   0.000015(    33)     0
 -----------------------------------------------------------------------------------------------
 Internal  Forces:  Max     0.006891583 RMS     0.001200545

 GradGradGradGradGradGradGradGradGradGradGradGradGradGradGradGradGradGrad
 Berny optimization.
 Search for a saddle point.
 Step number   1 out of a maximum of    2
 All quantities printed in internal units (Hartrees-Bohrs-Radians)
 Swaping is turned off.
 Second derivative matrix not updated -- analytic derivatives used.
 ITU=  0
     Eigenvalues ---   -0.04456   0.00301   0.01137   0.01322   0.01568
     Eigenvalues ---    0.03627   0.05980   0.07909   0.09059   0.11207
     Eigenvalues ---    0.14156   0.16092   0.18629   0.27220   0.28773
     Eigenvalues ---    0.29655   0.33322   0.36640   0.37140   0.41045
     Eigenvalues ---    0.44949   0.52768   0.58046   0.80199   1.14581
     Eigenvalues ---    2.58954   3.34763   3.80820   5.34650   6.71128
     Eigenvalues ---   16.54329  19.37810
 Eigenvectors required to have negative eigenvalues:
                          A11       A4        A10       B2        A8
   1                    0.46395   0.45777  -0.37258   0.33731  -0.28265
                          B8        A1        A7        A9        A3
   1                   -0.21155  -0.20603  -0.16132  -0.13703  -0.13233
 Angle between quadratic step and forces=  78.71 degrees.
 Linear search not attempted -- option 19 set.
 Variable       Old X    -DE/DX   Delta X   Delta X   Delta X     New X
                                 (Linear)    (Quad)   (Total)
    B1        1.83050   0.00001   0.00000   0.00003   0.00003   1.83054
    B2        1.95907   0.00000   0.00000   0.00021   0.00021   1.95928
    B3        2.05008   0.00001   0.00000   0.00004   0.00004   2.05012
    B4        2.05045   0.00001   0.00000   0.00005   0.00005   2.05050
    B5        5.26334  -0.00006   0.00000  -0.00022  -0.00022   5.26312
    B6        5.44229   0.00002   0.00000  -0.00141  -0.00141   5.44087
    B7        6.54030   0.00000   0.00000   0.00023   0.00023   6.54053
    B8        4.00163  -0.00001   0.00000  -0.00020  -0.00020   4.00143
    B9        4.80911   0.00003   0.00000  -0.00022  -0.00022   4.80889
   B10        2.79807   0.00001   0.00000   0.00015   0.00015   2.79821
   B11        2.62379  -0.00006   0.00000  -0.00026  -0.00026   2.62353
    A1        1.97212   0.00001   0.00000  -0.00015  -0.00015   1.97197
    A2        1.28434   0.00003   0.00000   0.00007   0.00007   1.28440
    A3        1.73508   0.00001   0.00000  -0.00061  -0.00061   1.73447
    A4        1.36465  -0.00001   0.00000   0.00046   0.00046   1.36510
    A5        1.26038   0.00003   0.00000   0.00034   0.00034   1.26072
    A6        1.89517  -0.00012   0.00000   0.00030   0.00030   1.89547
    A7        1.62727   0.00007   0.00000   0.00089   0.00089   1.62816
    A8        2.20112  -0.00007   0.00000  -0.00003  -0.00003   2.20109
    A9        1.61743   0.00011   0.00000   0.00056   0.00056   1.61799
   A10        1.73064   0.00003   0.00000   0.00008   0.00008   1.73072
   A11        1.68508   0.00002   0.00000   0.00059   0.00059   1.68567
    D1       -1.79541   0.00001   0.00000   0.00039   0.00039  -1.79502
    D2        0.19136   0.00000   0.00000  -0.00140  -0.00140   0.18995
    D3       -1.83983   0.00000   0.00000  -0.00146  -0.00146  -1.84129
    D4        3.03399  -0.00010   0.00000  -0.00167  -0.00167   3.03232
    D5        3.12096   0.00006   0.00000  -0.00074  -0.00074   3.12022
    D6        2.64136   0.00005   0.00000  -0.00109  -0.00109   2.64027
    D7        2.03147   0.00002   0.00000  -0.00191  -0.00191   2.02957
    D8        2.84296  -0.00004   0.00000  -0.00123  -0.00123   2.84173
    D9       -0.56685  -0.00004   0.00000  -0.00024  -0.00024  -0.56709
   D10       -0.71487   0.00002   0.00000   0.00091   0.00091  -0.71396
         Item               Value     Threshold  Converged?
 Maximum Force            0.000123     0.000450     YES
 RMS     Force            0.000047     0.000300     YES
 Maximum Displacement     0.001906     0.001800     NO 
 RMS     Displacement     0.000779     0.001200     YES
 Predicted change in Energy=-1.135804D-07
 GradGradGradGradGradGradGradGradGradGradGradGradGradGradGradGradGradGrad

 1\1\GINC-C56N07\Freq\RB3LYP\6-31++G(d,p)\C3H8O2\ROOT\06-Mar-2018\1\\#N
  Geom=AllCheck Guess=TCheck SCRF=Check GenChk RB3LYP/6-31++G(d,p) Freq
 \\OH-BACK-TERM\\0,1\C\O,1,2.20329058\H,2,B1,1,A1\H,2,B2,1,A2,3,D1,0\H,
 1,B3,2,A3,3,D2,0\H,1,B4,2,A4,3,D3,0\H,1,B5,2,A5,3,D4,0\H,1,B6,2,A6,3,D
 5,0\H,1,B7,2,A7,3,D6,0\H,1,B8,2,A8,3,D7,0\C,1,B9,2,A9,3,D8,0\C,1,B10,2
 ,A10,11,D9,0\O,12,B11,1,A11,2,D10,0\\B1=0.96866147\B2=1.03669499\B3=1.
 08485724\B4=1.085053\B5=2.785241\B6=2.87993354\B7=3.46097988\B8=2.1175
 697\B9=2.54487354\B10=1.48067281\B11=1.38844842\A1=112.99387851\A2=73.
 58719882\A3=99.41278285\A4=78.18846014\A5=72.21453587\A6=108.58504717\
 A7=93.23549024\A8=126.11475607\A9=92.67186159\A10=99.15863658\A11=96.5
 4784341\D1=-102.86959152\D2=10.96391465\D3=-105.41444348\D4=173.834636
 22\D5=178.81781388\D6=151.33880674\D7=116.39478836\D8=162.88959725\D9=
 -32.47827347\D10=-40.95891048\\Version=EM64L-G09RevB.01\HF=-269.485210
 9\RMSD=2.620e-09\RMSF=1.602e-03\ZeroPoint=0.1069235\Thermal=0.1130539\
 Dipole=0.5936211,1.1005387,-0.3277909\DipoleDeriv=0.1554128,-0.0231722
 ,0.1238397,0.1163271,0.5746362,0.216187,0.2546898,0.3237733,0.6983207,
 -0.3784466,-0.0960264,-0.1800208,-0.1657061,-0.5635847,-0.3112743,-0.2
 390748,-0.4314667,-1.082206,0.2213642,0.0464705,0.0716858,0.0595192,0.
 3035114,0.0391352,-0.0052033,-0.0081913,0.2962931,0.2613437,0.0745343,
 0.1034803,0.1159696,0.3211622,0.3375831,0.0812545,0.0918029,0.5460525,
 -0.0254813,-0.0031123,0.0135506,0.0155757,0.0532152,0.0181634,-0.01290
 43,0.0011609,0.0058001,0.0620475,0.0243161,0.0154724,0.0192886,0.03270
 96,0.0305049,-0.0324253,-0.1141493,0.0156715,0.043002,-0.0026723,-0.01
 7596,0.0329084,0.0329392,-0.0492609,0.0467569,-0.0625259,-0.0464578,-0
 .0366459,-0.0106956,-0.0211515,0.0899985,-0.0247565,0.1273448,-0.07883
 54,0.1228597,-0.0902369,-0.0085889,-0.0320138,-0.0254581,-0.1083479,-0
 .0673789,-0.0214975,-0.0121249,-0.0155212,0.0766424,-0.030826,0.040478
 6,0.0166673,0.01373,0.0512073,-0.10532,0.0026419,-0.1154814,-0.2843631
 ,-0.08848,0.0672132,0.0260689,0.0513409,0.138052,-0.0697623,0.0005219,
 -0.0874306,0.1019287,0.5239089,0.0297299,0.1379681,-0.2371582,0.114195
 8,-0.2291379,0.1407241,0.2329011,0.6092972,-0.6986104,-0.1150501,-0.26
 45067,-0.0034457,-0.965909,0.0173345,-0.1460211,0.0622685,-0.8467425\P
 olar=54.2473988,6.2529719,57.0482413,6.4424859,2.089559,62.6370745\PG=
 C01 [X(C3H8O2)]\NImag=1\\0.60847519,-0.04293328,0.55837859,-0.05420913
 ,0.09380473,0.14583206,-0.01416612,0.00393286,0.00592317,0.49908400,-0
 .00129762,-0.01887190,-0.00183414,0.04300187,0.32053579,0.00903483,0.0
 1967591,0.02395778,0.20709479,0.08757155,0.13870562,0.00112273,-0.0025
 9405,-0.00702354,-0.44049513,-0.01836141,-0.18071455,0.44576085,0.0011
 0017,-0.00230328,-0.00129848,0.02148352,-0.03690194,0.00881645,0.00940
 591,0.03351783,-0.00513784,0.00361705,0.00357102,-0.17462590,-0.005739
 21,-0.08779123,0.18609142,0.00512174,0.08977866,0.00469749,0.00443879,
 0.01137156,-0.05230808,-0.00252354,-0.02406416,-0.00803887,-0.03437284
 ,-0.00840697,0.07214506,0.00383791,0.01672283,0.03171885,-0.04801797,-
 0.22894064,-0.07776982,0.00934492,0.01008607,0.00064380,0.02739938,0.2
 1059961,0.00368709,0.01949260,-0.00100473,-0.01821717,-0.02297317,-0.0
 4449118,-0.00038721,-0.01002801,-0.00423928,0.01170490,0.00001606,0.03
 990207,-0.33484632,0.05434123,0.05449591,0.00097428,-0.00030002,-0.000
 63884,0.00027119,-0.00001254,0.00033674,-0.00025323,0.00050622,0.00037
 481,0.34803532,0.05974162,-0.06645489,-0.01570949,-0.00244552,-0.00042
 472,0.00191199,-0.00001440,0.00056940,-0.00069275,-0.00001579,0.000602
 58,0.00039485,-0.05851237,0.06047508,0.04821869,-0.01958875,-0.0421377
 1,0.00445896,-0.00012504,-0.00505713,0.00041703,-0.00050972,-0.0001906
 6,0.00031091,-0.00033133,-0.00036270,-0.05251307,0.01611914,0.03682757
 ,-0.08411769,0.06901560,0.01842283,0.00026276,-0.00060315,0.00067337,0
 .00010527,0.00061347,-0.00005306,0.00004699,-0.00007209,0.00013958,-0.
 00152611,0.02465687,0.00520278,0.07226112,0.07430744,-0.32271150,-0.06
 193974,0.00076862,-0.00081908,0.00593107,-0.00089245,0.00004673,0.0007
 0727,0.00093335,0.00287776,0.00160537,-0.00232050,0.00160688,-0.003695
 31,-0.07801580,0.32609633,0.01859145,-0.06272118,-0.04130616,-0.004466
 61,0.01057076,-0.02138984,0.00165629,0.00159645,-0.00276130,-0.0019515
 2,-0.00709345,-0.00546780,-0.00147215,-0.00537123,0.00603474,-0.019749
 78,0.06899220,0.04419667,0.00150136,0.00164893,0.00173321,0.00037094,-
 0.00019629,-0.00059485,0.00013451,-0.00019969,0.00006361,-0.00089009,0
 .00082489,0.00005235,0.00028257,-0.00009742,-0.00016010,-0.00012851,-0
 .00065775,0.00006751,0.06125350,-0.00063336,0.00085643,0.00033225,-0.0
 0016641,0.00003352,0.00014567,-0.00009569,-0.00003575,-0.00003793,0.00
 066995,-0.00003113,-0.00015508,0.00009153,-0.00012058,0.00018362,0.000
 12617,0.00016203,-0.00021372,-0.02270980,0.09946112,-0.00030552,-0.000
 35737,-0.00018244,-0.00026562,0.00032048,-0.00004606,-0.00011773,-0.00
 003488,0.00000783,-0.00014525,-0.00038295,-0.00018898,-0.00000341,0.00
 017443,0.00017458,0.00056095,0.00027810,-0.00013415,-0.04733961,0.1109
 3907,0.27920349,0.00161045,0.00044653,0.00119170,0.00022913,-0.0000677
 4,-0.00136676,0.00011356,0.00005810,0.00004805,-0.00025600,-0.00024901
 ,0.00024901,0.00028290,0.00011784,-0.00001582,-0.00023019,-0.00022297,
 -0.00044365,0.00080579,-0.00479493,0.00388596,0.06809097,0.00036134,-0
 .00069000,-0.00065682,-0.00012328,0.00019745,0.00081430,-0.00008017,-0
 .00000434,-0.00004746,0.00021737,-0.00010369,-0.00018137,0.00008860,0.
 00003891,0.00004243,0.00000423,0.00008420,0.00013122,-0.00478751,0.009
 70917,-0.00992106,-0.04833486,0.15784902,-0.00046099,0.00116842,-0.000
 05386,-0.00021017,-0.00028356,-0.00015186,-0.00003442,0.00005288,0.000
 03838,0.00057926,0.00009244,0.00024540,-0.00005098,-0.00014805,-0.0002
 2663,-0.00024398,-0.00027436,-0.00021789,-0.00800796,0.01907732,-0.018
 05277,0.05473965,-0.13036515,0.19691321,-0.00634231,0.00181227,0.00147
 470,0.00007108,0.00008403,0.00049876,0.00000480,0.00002077,0.00006362,
 -0.00003945,0.00005414,0.00008092,-0.00126388,-0.00107787,-0.00134838,
 0.00011831,-0.00007374,0.00032584,0.00339269,0.00554332,-0.00002657,0.
 00562085,0.00872663,0.00153479,0.13703601,0.00207842,-0.00002433,0.000
 61996,-0.00011253,0.00003029,-0.00018053,-0.00000190,0.00003444,0.0000
 1228,0.00003782,-0.00011388,0.00003768,0.00047969,0.00051889,-0.000236
 55,0.00030605,0.00018966,0.00014293,-0.00678446,-0.01057336,0.00015841
 ,-0.00997579,-0.01526498,-0.00243595,0.13412667,0.25300473,0.00056085,
 -0.00042749,0.00006031,-0.00013310,0.00004725,0.00012418,-0.00009107,0
 .00004301,0.00007277,0.00009135,-0.00027480,0.00003022,0.00006466,0.00
 014541,0.00004955,0.00004012,0.00004394,0.00006881,-0.01663231,-0.0240
 9391,-0.00079787,0.01422139,0.01943174,0.00177621,0.01068826,0.0186002
 1,0.04746801,0.00355176,-0.01275341,-0.01474510,-0.00053739,-0.0023522
 7,0.00104818,0.00019625,0.00007301,0.00021326,0.00037054,0.00315587,0.
 00179557,0.00063955,0.00043213,0.00047697,-0.00155244,-0.00267682,0.00
 076523,-0.00644542,0.00137136,0.00050607,0.00158297,-0.00008070,-0.000
 73452,0.00127602,-0.00060933,-0.00010277,0.06121921,0.00452260,-0.0175
 2912,-0.02323139,0.00001773,0.00094159,0.00196960,0.00011314,0.0001186
 6,0.00011104,-0.00027904,-0.00181248,0.00043691,-0.00015730,0.00113308
 ,0.00096979,-0.00269112,-0.00320008,0.00106455,0.00123044,0.00083509,0
 .00034480,-0.00014911,-0.00011578,0.00004773,0.00010301,0.00062250,0.0
 0049704,-0.01802908,0.09216014,-0.00084294,-0.00504905,-0.00530650,-0.
 00036050,-0.00349507,-0.00155031,-0.00001161,0.00004213,0.00023212,0.0
 0163185,0.00546849,0.00244014,-0.00035555,-0.00044725,0.00120587,-0.00
 130495,0.00098750,-0.00245534,0.00084669,-0.00029364,0.00113867,0.0005
 8080,-0.00073301,0.00056024,0.00004771,0.00041183,0.00003803,-0.034267
 06,0.08801554,0.24498172,-0.02619663,0.00134436,0.00025535,-0.00051363
 ,0.00006081,0.00036887,-0.00030680,-0.00004400,0.00008786,0.00038179,-
 0.00004276,-0.00059293,-0.00057997,-0.00161141,0.00140654,0.00172225,0
 .00178547,-0.00146985,-0.05576537,0.02032426,0.04281257,-0.06542441,0.
 04279050,-0.04871331,-0.12527925,-0.12419175,-0.01039143,-0.00927901,0
 .00241656,0.00101548,0.46511047,-0.02982844,0.00548408,0.00316004,0.00
 033831,0.00038412,0.00133467,0.00001913,-0.00001625,0.00012026,-0.0004
 7629,0.00021108,-0.00014327,-0.00470746,-0.00332040,-0.00353185,0.0002
 9300,0.00064228,0.00055178,0.02027105,-0.09650914,-0.10169291,0.042240
 20,-0.14772223,0.11667982,-0.12212860,-0.23644806,-0.01703878,0.015009
 85,-0.00124993,-0.00344172,0.02979499,0.56704060,-0.00289229,-0.001506
 88,0.00221635,0.00068417,-0.00005163,-0.00179453,0.00035917,0.00019566
 ,-0.00017248,-0.00154499,0.00009370,0.00019932,-0.00069813,-0.00020825
 ,0.00081217,-0.00055064,0.00126660,-0.00070487,0.04052458,-0.10107249,
 -0.26031273,-0.04828465,0.11599533,-0.18355088,-0.01145822,-0.01721709
 ,-0.04814580,0.02919157,-0.00600476,-0.00388385,0.00469965,0.00276556,
 0.57453158,-0.15975073,-0.09220573,-0.01933670,0.00135051,-0.00056948,
 0.00561180,-0.00079837,0.00026636,0.00074107,-0.00038104,0.00067397,-0
 .00108293,-0.01547355,-0.01943132,-0.01544102,0.01195484,0.00582417,0.
 01464437,-0.00773902,0.00143018,0.00045578,-0.00456583,-0.00238302,0.0
 0318214,-0.01827076,0.00563367,0.00203708,-0.05593996,0.01069182,0.044
 48283,-0.17288331,0.02296341,0.02023181,0.50533122,-0.06779570,-0.1240
 6812,-0.04862489,-0.00519130,-0.01448001,-0.01304011,0.00128262,0.0000
 8996,-0.00091789,-0.00056611,0.01235093,0.00691055,0.00824295,0.004802
 01,0.00966593,-0.01037094,-0.00599185,0.00268182,0.01321309,-0.0031236
 6,0.00037329,0.01930920,-0.00507621,-0.00403167,-0.02823207,0.00691566
 ,0.00318182,0.01082740,-0.08595777,-0.08794057,0.01621497,-0.08077261,
 -0.00529396,0.01278629,0.41735326,-0.02020044,-0.08167078,-0.04856550,
 -0.00134414,-0.00730036,0.01721866,0.00014963,0.00049925,0.00231762,-0
 .00284598,0.01666273,-0.00204245,0.00206381,0.00635307,0.00134301,-0.0
 0628133,-0.01468939,0.01617690,0.03071809,-0.00501283,-0.00285520,-0.0
 2579466,0.00539167,0.00153044,-0.00226229,0.00070875,-0.00067815,0.030
 32682,-0.09548901,-0.19677385,0.02381982,-0.00512150,-0.07762991,-0.01
 127813,0.06510899,0.45604445,0.00446084,0.01350590,0.00044605,0.005677
 64,-0.01687519,-0.01695144,0.00193001,0.00160776,0.00057815,-0.0154751
 0,0.00258454,0.00219600,0.00345726,-0.00174236,0.00898651,0.00108340,0
 .00124097,-0.00649714,0.00322705,-0.00115658,-0.00001762,-0.00786019,0
 .00360088,-0.00157951,0.00367589,-0.00098656,-0.00035303,0.00491792,0.
 00221037,-0.01146274,-0.01098612,0.02621084,-0.03026204,-0.08283401,0.
 03027962,-0.01707121,0.08872539,-0.00346111,-0.02878878,0.02365914,-0.
 01348591,-0.02168447,-0.03718074,0.00187435,-0.00520152,-0.00289819,0.
 00453695,-0.02244903,0.00458688,0.00225996,0.00057377,0.00103766,-0.00
 326230,0.00101665,-0.01033213,-0.00175547,-0.00066375,-0.00019942,0.00
 162256,0.00109849,0.00042013,0.00104145,0.00110844,-0.00015544,0.00563
 199,0.01405409,0.00647483,0.01115801,-0.00772354,0.01103820,0.05431969
 ,-0.12204158,0.11455940,-0.06048017,0.19070123,0.00395624,0.03356279,-
 0.03708061,-0.01853786,-0.05670786,-0.01773409,-0.00029341,-0.00449649
 ,-0.00086345,0.01326903,0.03115629,0.01497997,-0.00160380,-0.00252187,
 0.00152735,0.00314413,0.00078676,0.00796023,-0.00127122,0.00020167,0.0
 0204564,0.00098898,0.00009818,0.00119000,0.00038084,-0.00062193,-0.000
 06628,-0.01447423,0.03126818,-0.04062695,-0.01329862,0.00635790,-0.001
 56438,-0.04424809,0.07192669,-0.16608601,0.07198801,-0.11101031,0.2363
 1858\\-0.00070666,-0.00135081,-0.00692104,0.00072808,0.00120551,0.0069
 1442,-0.00000314,0.00012197,-0.00000826,-0.00000653,0.00000614,-0.0000
 1458,-0.00000914,-0.00000019,0.00000513,0.00000247,-0.00000840,-0.0000
 0726,-0.00005450,0.00001473,0.00002294,0.00002471,-0.00001079,-0.00001
 556,0.00000231,-0.00000741,0.00001099,0.00000775,0.00000266,-0.0000182
 3,0.00002512,0.00000766,0.00002390,-0.00003840,0.00005132,-0.00003172,
 0.00002793,-0.00003239,0.00003926\\\@


 IF I HAVE SEEN FARTHER, IT IS BY STANDING ON THE
 SHOULDERS OF GIANTS. -- SIR ISAAC NEWTON
 Job cpu time:  0 days  0 hours  8 minutes 44.0 seconds.
 File lengths (MBytes):  RWF=   1248 Int=      0 D2E=      0 Chk=     32 Scr=     32
 Normal termination of Gaussian 09 at Tue Mar  6 17:11:05 2018.
