 Entering Gaussian System, Link 0=g09
 Input=H3O-mid-field-3.gjf
 Output=H3O-mid-field-3.log
 Initial command:
 /share/home/zxchen/g09/l1.exe /scratch/zxchen/Gau-29791.inp -scrdir=/scratch/zxchen/
 Entering Link 1 = /share/home/zxchen/g09/l1.exe PID=     29792.
  
 Copyright (c) 1988,1990,1992,1993,1995,1998,2003,2009,2010,
            Gaussian, Inc.  All Rights Reserved.
  
 This is part of the Gaussian(R) 09 program.  It is based on
 the Gaussian(R) 03 system (copyright 2003, Gaussian, Inc.),
 the Gaussian(R) 98 system (copyright 1998, Gaussian, Inc.),
 the Gaussian(R) 94 system (copyright 1995, Gaussian, Inc.),
 the Gaussian 92(TM) system (copyright 1992, Gaussian, Inc.),
 the Gaussian 90(TM) system (copyright 1990, Gaussian, Inc.),
 the Gaussian 88(TM) system (copyright 1988, Gaussian, Inc.),
 the Gaussian 86(TM) system (copyright 1986, Carnegie Mellon
 University), and the Gaussian 82(TM) system (copyright 1983,
 Carnegie Mellon University). Gaussian is a federally registered
 trademark of Gaussian, Inc.
  
 This software contains proprietary and confidential information,
 including trade secrets, belonging to Gaussian, Inc.
  
 This software is provided under written license and may be
 used, copied, transmitted, or stored only in accord with that
 written license.
  
 The following legend is applicable only to US Government
 contracts under FAR:
  
                    RESTRICTED RIGHTS LEGEND
  
 Use, reproduction and disclosure by the US Government is
 subject to restrictions as set forth in subparagraphs (a)
 and (c) of the Commercial Computer Software - Restricted
 Rights clause in FAR 52.227-19.
  
 Gaussian, Inc.
 340 Quinnipiac St., Bldg. 40, Wallingford CT 06492
  
  
 ---------------------------------------------------------------
 Warning -- This program may not be used in any manner that
 competes with the business of Gaussian, Inc. or will provide
 assistance to any competitor of Gaussian, Inc.  The licensee
 of this program is prohibited from giving any competitor of
 Gaussian, Inc. access to this program.  By using this program,
 the user acknowledges that Gaussian, Inc. is engaged in the
 business of creating and licensing software in the field of
 computational chemistry and represents and warrants to the
 licensee that it is not a competitor of Gaussian, Inc. and that
 it will not use this program in any manner prohibited above.
 ---------------------------------------------------------------
  

 Cite this work as:
 Gaussian 09, Revision B.01,
 M. J. Frisch, G. W. Trucks, H. B. Schlegel, G. E. Scuseria, 
 M. A. Robb, J. R. Cheeseman, G. Scalmani, V. Barone, B. Mennucci, 
 G. A. Petersson, H. Nakatsuji, M. Caricato, X. Li, H. P. Hratchian, 
 A. F. Izmaylov, J. Bloino, G. Zheng, J. L. Sonnenberg, M. Hada, 
 M. Ehara, K. Toyota, R. Fukuda, J. Hasegawa, M. Ishida, T. Nakajima, 
 Y. Honda, O. Kitao, H. Nakai, T. Vreven, J. A. Montgomery, Jr., 
 J. E. Peralta, F. Ogliaro, M. Bearpark, J. J. Heyd, E. Brothers, 
 K. N. Kudin, V. N. Staroverov, T. Keith, R. Kobayashi, J. Normand, 
 K. Raghavachari, A. Rendell, J. C. Burant, S. S. Iyengar, J. Tomasi, 
 M. Cossi, N. Rega, J. M. Millam, M. Klene, J. E. Knox, J. B. Cross, 
 V. Bakken, C. Adamo, J. Jaramillo, R. Gomperts, R. E. Stratmann, 
 O. Yazyev, A. J. Austin, R. Cammi, C. Pomelli, J. W. Ochterski, 
 R. L. Martin, K. Morokuma, V. G. Zakrzewski, G. A. Voth, 
 P. Salvador, J. J. Dannenberg, S. Dapprich, A. D. Daniels, 
 O. Farkas, J. B. Foresman, J. V. Ortiz, J. Cioslowski, 
 and D. J. Fox, Gaussian, Inc., Wallingford CT, 2010.
 
 ******************************************
 Gaussian 09:  EM64L-G09RevB.01 12-Aug-2010
                26-Apr-2018 
 ******************************************
 %chk=H3O-mid-field-3.chk
 %nprocshared=24
 Will use up to   24 processors via shared memory.
 ----------------------------------------------------------------------
 # field=z-50 opt=(ts,noeigen,calcfc,z-matrix) freq rb3lyp/6-31++g(d,p)
 ----------------------------------------------------------------------
 1/5=1,10=4,11=1,14=-1,18=40,26=3,38=1/1,3;
 2/12=2,17=6,18=5,29=3,40=1/2;
 3/5=1,6=6,7=1111,11=2,14=3,15=-50,16=1,25=1,30=1,71=2,74=-5,116=1/1,2,3;
 4//1;
 5/5=2,38=5/2;
 8/6=4,10=90,11=11/1;
 11/6=1,8=1,9=11,15=111,16=1/1,2,10;
 10/6=1,7=6,13=1/2;
 6/7=2,8=2,9=2,10=2,28=1/1;
 7/10=1,18=20,25=1/1,2,3,16;
 1/5=1,10=4,11=1,14=-1,18=40/3(2);
 2/29=3/2;
 99//99;
 2/29=3/2;
 3/5=1,6=6,7=1111,11=2,14=3,15=-50,16=1,25=1,30=1,71=1,74=-5,116=1/1,2,3;
 4/5=5,16=3/1;
 5/5=2,38=5/2;
 7//1,2,3,16;
 1/5=1,11=1,14=-1,18=40/3(-5);
 2/29=3/2;
 6/7=2,8=2,9=2,10=2,19=2,28=1/1;
 99/9=1/99;
 -------------
 H3O-BACK-MIDM
 -------------
 Symbolic Z-matrix:
 Charge =  1 Multiplicity = 1
 C
 O                    1    B1
 H                    1    B2       2    A1
 H                    1    B3       2    A2       3    D1       0
 H                    2    B4       1    A3       4    D2       0
 H                    2    B5       1    A4       4    D3       0
 H                    1    B6       2    A5       6    D4       0
 H                    1    B7       2    A6       6    D5       0
 H                    1    B8       2    A7       6    D6       0
 H                    1    B9       2    A8       6    D7       0
 H                    1    B10      2    A9       6    D8       0
 C                    1    B11      2    A10      6    D9       0
 C                    1    B12      12   A11      2    D10      0
 O                    12   B13      1    A12      13   D11      0
       Variables:
  B1                    2.39383                  
  B2                    2.18839                  
  B3                    2.18626                  
  B4                    0.96962                  
  B5                    0.96952                  
  B6                    1.08743                  
  B7                    2.46884                  
  B8                    2.12075                  
  B9                    2.14721                  
  B10                   2.0585                   
  B11                   1.46886                  
  B12                   1.46606                  
  B13                   1.46551                  
  A1                   75.90126                  
  A2                   89.21903                  
  A3                  127.94759                  
  A4                  126.13133                  
  A5                   82.94094                  
  A6                  129.91518                  
  A7                  121.58592                  
  A8                  105.54452                  
  A9                   73.68662                  
  A10                  91.52664                  
  A11                 124.46961                  
  A12                  83.52183                  
  D1                   47.64878                  
  D2                  -50.64748                  
  D3                  138.98798                  
  D4                   -3.6014                   
  D5                   69.54412                  
  D6                  -97.61981                  
  D7                 -149.91766                  
  D8                 -110.53715                  
  D9                  112.68998                  
  D10                -106.64121                  
  D11                  86.79859                  
 

 GradGradGradGradGradGradGradGradGradGradGradGradGradGradGradGradGradGrad
 Berny optimization.
 Initialization pass.
                       ----------------------------
                       !    Initial Parameters    !
                       ! (Angstroms and Degrees)  !
 ----------------------                            ----------------------
 !      Name          Value   Derivative information (Atomic Units)     !
 ------------------------------------------------------------------------
 !       B1          2.3938   calculate D2E/DX2 analytically            !
 !       B2          2.1884   calculate D2E/DX2 analytically            !
 !       B3          2.1863   calculate D2E/DX2 analytically            !
 !       B4          0.9696   calculate D2E/DX2 analytically            !
 !       B5          0.9695   calculate D2E/DX2 analytically            !
 !       B6          1.0874   calculate D2E/DX2 analytically            !
 !       B7          2.4688   calculate D2E/DX2 analytically            !
 !       B8          2.1208   calculate D2E/DX2 analytically            !
 !       B9          2.1472   calculate D2E/DX2 analytically            !
 !       B10         2.0585   calculate D2E/DX2 analytically            !
 !       B11         1.4689   calculate D2E/DX2 analytically            !
 !       B12         1.4661   calculate D2E/DX2 analytically            !
 !       B13         1.4655   calculate D2E/DX2 analytically            !
 !       A1         75.9013   calculate D2E/DX2 analytically            !
 !       A2         89.219    calculate D2E/DX2 analytically            !
 !       A3        127.9476   calculate D2E/DX2 analytically            !
 !       A4        126.1313   calculate D2E/DX2 analytically            !
 !       A5         82.9409   calculate D2E/DX2 analytically            !
 !       A6        129.9152   calculate D2E/DX2 analytically            !
 !       A7        121.5859   calculate D2E/DX2 analytically            !
 !       A8        105.5445   calculate D2E/DX2 analytically            !
 !       A9         73.6866   calculate D2E/DX2 analytically            !
 !       A10        91.5266   calculate D2E/DX2 analytically            !
 !       A11       124.4696   calculate D2E/DX2 analytically            !
 !       A12        83.5218   calculate D2E/DX2 analytically            !
 !       D1         47.6488   calculate D2E/DX2 analytically            !
 !       D2        -50.6475   calculate D2E/DX2 analytically            !
 !       D3        138.988    calculate D2E/DX2 analytically            !
 !       D4         -3.6014   calculate D2E/DX2 analytically            !
 !       D5         69.5441   calculate D2E/DX2 analytically            !
 !       D6        -97.6198   calculate D2E/DX2 analytically            !
 !       D7       -149.9177   calculate D2E/DX2 analytically            !
 !       D8       -110.5372   calculate D2E/DX2 analytically            !
 !       D9        112.69     calculate D2E/DX2 analytically            !
 !       D10      -106.6412   calculate D2E/DX2 analytically            !
 !       D11        86.7986   calculate D2E/DX2 analytically            !
 ------------------------------------------------------------------------
 Trust Radius=3.00D-01 FncErr=1.00D-07 GrdErr=1.00D-06
 Number of steps in this run=     46 maximum allowed number of steps=    100.
 Search for a saddle point of order  1.
 GradGradGradGradGradGradGradGradGradGradGradGradGradGradGradGradGradGrad

 ---------------------------------------------------------------------------------------------------
                            Z-MATRIX (ANGSTROMS AND DEGREES)
   CD    Cent   Atom    N1       Length/X        N2       Alpha/Y        N3        Beta/Z          J
 ---------------------------------------------------------------------------------------------------
      1      1  C 
      2      2  O        1   2.393830(     1)
      3      3  H        1   2.188390(     2)      2   75.901(    14)
      4      4  H        1   2.186259(     3)      2   89.219(    15)      3   47.649(    26)      0
      5      5  H        2   0.969622(     4)      1  127.948(    16)      4  -50.647(    27)      0
      6      6  H        2   0.969520(     5)      1  126.131(    17)      4  138.988(    28)      0
      7      7  H        1   1.087431(     6)      2   82.941(    18)      6   -3.601(    29)      0
      8      8  H        1   2.468837(     7)      2  129.915(    19)      6   69.544(    30)      0
      9      9  H        1   2.120752(     8)      2  121.586(    20)      6  -97.620(    31)      0
     10     10  H        1   2.147212(     9)      2  105.545(    21)      6 -149.918(    32)      0
     11     11  H        1   2.058505(    10)      2   73.687(    22)      6 -110.537(    33)      0
     12     12  C        1   1.468858(    11)      2   91.527(    23)      6  112.690(    34)      0
     13     13  C        1   1.466056(    12)     12  124.470(    24)      2 -106.641(    35)      0
     14     14  O       12   1.465510(    13)      1   83.522(    25)     13   86.799(    36)      0
 ---------------------------------------------------------------------------------------------------
                         Z-Matrix orientation:                         
 ---------------------------------------------------------------------
 Center     Atomic      Atomic             Coordinates (Angstroms)
 Number     Number       Type             X           Y           Z
 ---------------------------------------------------------------------
      1          6           0        0.000000    0.000000    0.000000
      2          8           0        0.000000    0.000000    2.393830
      3          1           0        2.122470    0.000000    0.533078
      4          1           0        1.472688   -1.615559    0.029799
      5          1           0       -0.110328   -0.756617    2.990090
      6          1           0       -0.018301    0.782836    2.965496
      7          1           0       -0.092943    1.075179    0.133637
      8          1           0        1.758228    0.703066   -1.584136
      9          1           0       -1.784534   -0.281334   -1.110800
     10          1           0       -0.994791   -1.813780   -0.575425
     11          1           0       -1.833364   -0.736129    0.578215
     12          6           0        1.367563   -0.534587   -0.039133
     13          6           0       -1.202723   -0.773216   -0.323903
     14          8           0        1.301697   -0.145456   -1.450501
 ---------------------------------------------------------------------
                    Distance matrix (angstroms):
                    1          2          3          4          5
     1  C    0.000000
     2  O    2.393830   0.000000
     3  H    2.188390   2.822637   0.000000
     4  H    2.186259   3.219858   1.812605   0.000000
     5  H    3.086305   0.969622   3.405109   3.465118   0.000000
     6  H    3.067138   0.969520   3.333525   4.073532   1.542397
     7  H    1.087431   2.504620   2.494718   3.114812   3.393391
     8  H    2.468837   4.405665   2.260436   2.839426   5.152254
     9  H    2.120752   3.942860   4.248078   3.700083   4.454903
    10  H    2.147212   3.618823   3.773048   2.548341   3.822665
    11  H    2.058505   2.683201   4.023996   3.464699   2.964189
    12  C    1.468858   2.841711   1.087701   1.088257   3.377818
    13  C    1.466056   3.070908   3.519828   2.827096   3.489434
    14  O    1.954361   4.061336   2.151607   2.093258   4.699594
                    6          7          8          9         10
     6  H    0.000000
     7  H    2.847887   0.000000
     8  H    4.884831   2.552655   0.000000
     9  H    4.568175   2.500046   3.707324   0.000000
    10  H    4.498230   3.108405   3.864081   1.805190   0.000000
    11  H    3.361669   2.550990   4.432446   1.749856   1.787574
    12  C    3.561463   2.180430   2.017781   3.338910   2.739463
    13  C    3.826787   2.203978   3.540456   1.095289   1.090538
    14  O    4.701611   2.438127   0.972763   3.107842   2.970340
                   11         12         13         14
    11  H    0.000000
    12  C    3.266140   0.000000
    13  C    1.101318   2.597000   0.000000
    14  O    3.780634   1.465510   2.816989   0.000000
 Stoichiometry    C3H9O2(1+)
 Framework group  C1[X(C3H9O2)]
 Deg. of freedom    36
 Full point group                 C1      NOp   1
 Largest Abelian subgroup         C1      NOp   1
 Largest concise Abelian subgroup C1      NOp   1
                         Standard orientation:                         
 ---------------------------------------------------------------------
 Center     Atomic      Atomic             Coordinates (Angstroms)
 Number     Number       Type             X           Y           Z
 ---------------------------------------------------------------------
      1          6           0       -0.093714    0.266683   -0.342733
      2          8           0        2.146232   -0.528576   -0.058787
      3          1           0       -0.337398   -1.857030    0.125788
      4          1           0       -0.654283   -0.738188    1.516224
      5          1           0        2.708444   -0.458888    0.728124
      6          1           0        2.723055   -0.874064   -0.757273
      7          1           0        0.112608    0.070806   -1.392291
      8          1           0       -2.159204   -0.974398   -0.879973
      9          1           0       -0.521592    2.334327   -0.541119
     10          1           0       -0.366404    1.769559    1.166413
     11          1           0        1.055304    1.918133    0.093057
     12          6           0       -0.632984   -0.856873    0.434668
     13          6           0       -0.011119    1.647602    0.142611
     14          8           0       -1.912935   -0.413266   -0.124492
 ---------------------------------------------------------------------
 Rotational constants (GHZ):      6.3313295      2.9595101      2.2317229
 Standard basis: 6-31++G(d,p) (6D, 7F)
 The following finite field(s) will be applied:
 An electric field of              0.0000  0.0000 -0.0050
 There are   149 symmetry adapted basis functions of A   symmetry.
 Integral buffers will be    131072 words long.
 Raffenetti 2 integral format.
 Two-electron integral symmetry is turned on.
   149 basis functions,   232 primitive gaussians,   149 cartesian basis functions
    21 alpha electrons       21 beta electrons
       nuclear repulsion energy       191.2782932385 Hartrees.
 NAtoms=   14 NActive=   14 NUniq=   14 SFac= 1.00D+00 NAtFMM=   50 NAOKFM=F Big=F
 One-electron integrals computed using PRISM.
 PrsmSu:  requested number of processors reduced to:  10 ShMem   1 Linda.
 NBasis=   149 RedAO= T  NBF=   149
 NBsUse=   149 1.00D-06 NBFU=   149
 The nuclear repulsion energy is now       191.2782932385 hartrees.
 Harris functional with IExCor=  402 diagonalized for initial guess.
 ExpMin= 3.60D-02 ExpMax= 5.48D+03 ExpMxC= 8.25D+02 IAcc=3 IRadAn=         0 AccDes= 0.00D+00
 HarFok:  IExCor=  402 AccDes= 0.00D+00 IRadAn=         0 IDoV= 1
 ScaDFX=  1.000000  1.000000  1.000000  1.000000
 FoFCou: FMM=F IPFlag=           0 FMFlag=      100000 FMFlg1=           0
         NFxFlg=           0 DoJE=T BraDBF=F KetDBF=T FulRan=T
         Omega=  0.000000  0.000000  1.000000  0.000000  0.000000 ICntrl=     500 IOpCl=  0
         NMat0=    1 NMatS0=    1 NMatT0=    0 NMatD0=    1 NMtDS0=    0 NMtDT0=    0
         I1Cent=           4 NGrid=           0.
 Petite list used in FoFCou.
 Initial guess orbital symmetries:
       Occupied  (A) (A) (A) (A) (A) (A) (A) (A) (A) (A) (A) (A)
                 (A) (A) (A) (A) (A) (A) (A) (A) (A)
       Virtual   (A) (A) (A) (A) (A) (A) (A) (A) (A) (A) (A) (A)
                 (A) (A) (A) (A) (A) (A) (A) (A) (A) (A) (A) (A)
                 (A) (A) (A) (A) (A) (A) (A) (A) (A) (A) (A) (A)
                 (A) (A) (A) (A) (A) (A) (A) (A) (A) (A) (A) (A)
                 (A) (A) (A) (A) (A) (A) (A) (A) (A) (A) (A) (A)
                 (A) (A) (A) (A) (A) (A) (A) (A) (A) (A) (A) (A)
                 (A) (A) (A) (A) (A) (A) (A) (A) (A) (A) (A) (A)
                 (A) (A) (A) (A) (A) (A) (A) (A) (A) (A) (A) (A)
                 (A) (A) (A) (A) (A) (A) (A) (A) (A) (A) (A) (A)
                 (A) (A) (A) (A) (A) (A) (A) (A) (A) (A) (A) (A)
                 (A) (A) (A) (A) (A) (A) (A) (A)
 The electronic state of the initial guess is 1-A.
 Requested convergence on RMS density matrix=1.00D-08 within 128 cycles.
 Requested convergence on MAX density matrix=1.00D-06.
 Requested convergence on             energy=1.00D-06.
 No special actions if energy rises.
 SCF Done:  E(RB3LYP) =  -269.888982034     A.U. after   12 cycles
             Convg  =    0.5433D-08             -V/T =  2.0095
 Range of M.O.s used for correlation:     1   149
 NBasis=   149 NAE=    21 NBE=    21 NFC=     0 NFV=     0
 NROrb=    149 NOA=    21 NOB=    21 NVA=   128 NVB=   128

 **** Warning!!: The largest alpha MO coefficient is  0.52804949D+02

 PrsmSu:  requested number of processors reduced to:  10 ShMem   1 Linda.
 PrsmSu:  requested number of processors reduced to:  17 ShMem   1 Linda.
 Symmetrizing basis deriv contribution to polar:
 IMax=3 JMax=2 DiffMx= 0.00D+00
 G2DrvN: will do     3 centers at a time, making    5 passes doing MaxLOS=2.
 Estimated number of processors is:   15
 Calling FoFCou, ICntrl=  3107 FMM=F I1Cent=   0 AccDes= 0.00D+00.
 CoulSu:  requested number of processors reduced to:  15 ShMem   1 Linda.
 Calling FoFCou, ICntrl=  3107 FMM=F I1Cent=   0 AccDes= 0.00D+00.
 CoulSu:  requested number of processors reduced to:  15 ShMem   1 Linda.
 Calling FoFCou, ICntrl=  3107 FMM=F I1Cent=   0 AccDes= 0.00D+00.
 CoulSu:  requested number of processors reduced to:  15 ShMem   1 Linda.
 Calling FoFCou, ICntrl=  3107 FMM=F I1Cent=   0 AccDes= 0.00D+00.
 CoulSu:  requested number of processors reduced to:  15 ShMem   1 Linda.
 Calling FoFCou, ICntrl=  3107 FMM=F I1Cent=   0 AccDes= 0.00D+00.
 CoulSu:  requested number of processors reduced to:  15 ShMem   1 Linda.
 FoFDir/FoFCou used for L=0 through L=2.
 End of G2Drv Frequency-dependent properties file   721 does not exist.
 End of G2Drv Frequency-dependent properties file   722 does not exist.
          IDoAtm=11111111111111
          Differentiating once with respect to nuclear coordinates.
 PrRfSu:  requested number of processors reduced to:  16 ShMem   1 Linda.
 CalDSu:  requested number of processors reduced to:  21 ShMem   1 Linda.
 PrRfSu:  requested number of processors reduced to:  16 ShMem   1 Linda.
 CalDSu:  requested number of processors reduced to:  21 ShMem   1 Linda.
          There are    45 degrees of freedom in the 1st order CPHF.  IDoFFX=5.
     39 vectors produced by pass  0 Test12= 5.97D-11 2.22D-07 XBig12= 1.08D-01 1.50D-01.
 AX will form    20 AO Fock derivatives at one time.
 PrRfSu:  requested number of processors reduced to:  16 ShMem   1 Linda.
 CalDSu:  requested number of processors reduced to:  22 ShMem   1 Linda.
 PrRfSu:  requested number of processors reduced to:  16 ShMem   1 Linda.
 CalDSu:  requested number of processors reduced to:  22 ShMem   1 Linda.
     39 vectors produced by pass  1 Test12= 5.97D-11 2.22D-07 XBig12= 2.00D-02 3.64D-02.
 PrRfSu:  requested number of processors reduced to:  16 ShMem   1 Linda.
 CalDSu:  requested number of processors reduced to:  22 ShMem   1 Linda.
 PrRfSu:  requested number of processors reduced to:  16 ShMem   1 Linda.
 CalDSu:  requested number of processors reduced to:  22 ShMem   1 Linda.
     39 vectors produced by pass  2 Test12= 5.97D-11 2.22D-07 XBig12= 2.45D-04 3.36D-03.
 PrRfSu:  requested number of processors reduced to:  16 ShMem   1 Linda.
 CalDSu:  requested number of processors reduced to:  22 ShMem   1 Linda.
 PrRfSu:  requested number of processors reduced to:  16 ShMem   1 Linda.
 CalDSu:  requested number of processors reduced to:  22 ShMem   1 Linda.
     39 vectors produced by pass  3 Test12= 5.97D-11 2.22D-07 XBig12= 7.66D-07 1.93D-04.
 PrRfSu:  requested number of processors reduced to:  16 ShMem   1 Linda.
 CalDSu:  requested number of processors reduced to:  22 ShMem   1 Linda.
 PrRfSu:  requested number of processors reduced to:  16 ShMem   1 Linda.
 CalDSu:  requested number of processors reduced to:  22 ShMem   1 Linda.
      9 vectors produced by pass  4 Test12= 5.97D-11 2.22D-07 XBig12= 9.68D-10 4.88D-06.
 PrRfSu:  requested number of processors reduced to:  17 ShMem   1 Linda.
 Inverted reduced A of dimension   165 with in-core refinement.
 End of Minotr Frequency-dependent properties file   721 does not exist.
 End of Minotr Frequency-dependent properties file   722 does not exist.

 **********************************************************************

            Population analysis using the SCF density.

 **********************************************************************

 Orbital symmetries:
       Occupied  (A) (A) (A) (A) (A) (A) (A) (A) (A) (A) (A) (A)
                 (A) (A) (A) (A) (A) (A) (A) (A) (A)
       Virtual   (A) (A) (A) (A) (A) (A) (A) (A) (A) (A) (A) (A)
                 (A) (A) (A) (A) (A) (A) (A) (A) (A) (A) (A) (A)
                 (A) (A) (A) (A) (A) (A) (A) (A) (A) (A) (A) (A)
                 (A) (A) (A) (A) (A) (A) (A) (A) (A) (A) (A) (A)
                 (A) (A) (A) (A) (A) (A) (A) (A) (A) (A) (A) (A)
                 (A) (A) (A) (A) (A) (A) (A) (A) (A) (A) (A) (A)
                 (A) (A) (A) (A) (A) (A) (A) (A) (A) (A) (A) (A)
                 (A) (A) (A) (A) (A) (A) (A) (A) (A) (A) (A) (A)
                 (A) (A) (A) (A) (A) (A) (A) (A) (A) (A) (A) (A)
                 (A) (A) (A) (A) (A) (A) (A) (A) (A) (A) (A) (A)
                 (A) (A) (A) (A) (A) (A) (A) (A)
 The electronic state is 1-A.
 Alpha  occ. eigenvalues --  -19.41157 -19.35497 -10.50010 -10.45270 -10.38168
 Alpha  occ. eigenvalues --   -1.26843  -1.20432  -1.01018  -0.90879  -0.80373
 Alpha  occ. eigenvalues --   -0.74651  -0.72169  -0.67842  -0.66572  -0.62192
 Alpha  occ. eigenvalues --   -0.60756  -0.57878  -0.57618  -0.56568  -0.52095
 Alpha  occ. eigenvalues --   -0.50602
 Alpha virt. eigenvalues --   -0.27896  -0.18132  -0.15823  -0.13093  -0.12088
 Alpha virt. eigenvalues --   -0.10683  -0.09360  -0.08366  -0.08250  -0.07255
 Alpha virt. eigenvalues --   -0.06466  -0.05174  -0.04459  -0.02695  -0.02292
 Alpha virt. eigenvalues --   -0.02230  -0.00847  -0.00511   0.01013   0.01428
 Alpha virt. eigenvalues --    0.02874   0.03483   0.04156   0.04256   0.04773
 Alpha virt. eigenvalues --    0.05660   0.06166   0.07401   0.08179   0.08730
 Alpha virt. eigenvalues --    0.09662   0.10949   0.11511   0.14388   0.14789
 Alpha virt. eigenvalues --    0.15152   0.16863   0.19122   0.20100   0.23373
 Alpha virt. eigenvalues --    0.25066   0.25951   0.42324   0.48747   0.50873
 Alpha virt. eigenvalues --    0.54141   0.57150   0.57328   0.60028   0.61253
 Alpha virt. eigenvalues --    0.67561   0.74259   0.76882   0.79312   0.80184
 Alpha virt. eigenvalues --    0.81150   0.83415   0.86850   0.88470   0.91789
 Alpha virt. eigenvalues --    0.95103   0.96471   1.01177   1.01628   1.03312
 Alpha virt. eigenvalues --    1.06953   1.09250   1.13258   1.14534   1.20923
 Alpha virt. eigenvalues --    1.22898   1.31225   1.33139   1.34148   1.41830
 Alpha virt. eigenvalues --    1.43516   1.47416   1.53010   1.56141   1.61154
 Alpha virt. eigenvalues --    1.66207   1.70431   1.73797   1.80506   1.85074
 Alpha virt. eigenvalues --    1.87057   1.91862   1.93555   1.96299   2.01737
 Alpha virt. eigenvalues --    2.06516   2.09179   2.11239   2.13020   2.16780
 Alpha virt. eigenvalues --    2.20426   2.25175   2.26896   2.32838   2.35307
 Alpha virt. eigenvalues --    2.36619   2.39868   2.45207   2.46264   2.47071
 Alpha virt. eigenvalues --    2.47921   2.53920   2.63265   2.65962   2.68103
 Alpha virt. eigenvalues --    2.69221   2.74248   2.79128   2.85306   3.06212
 Alpha virt. eigenvalues --    3.10931   3.19765   3.21717   3.26408   3.28406
 Alpha virt. eigenvalues --    3.29502   3.33575   3.38342   4.04173   4.11820
 Alpha virt. eigenvalues --    4.20695   4.31893   4.45374
          Condensed to atoms (all electrons):
              1          2          3          4          5          6
     1  C    6.437526  -0.021612  -0.012241  -0.052631   0.025293   0.009245
     2  O   -0.021612   8.218321   0.010822  -0.002383   0.287400   0.272933
     3  H   -0.012241   0.010822   0.536259  -0.034216  -0.000921  -0.001272
     4  H   -0.052631  -0.002383  -0.034216   0.440039  -0.000028   0.000105
     5  H    0.025293   0.287400  -0.000921  -0.000028   0.312100  -0.017400
     6  H    0.009245   0.272933  -0.001272   0.000105  -0.017400   0.340458
     7  H    0.340535  -0.015615  -0.026447   0.007713   0.003177   0.000022
     8  H   -0.008480  -0.000086  -0.021243   0.009326  -0.000334   0.000275
     9  H   -0.029979   0.002868  -0.001220   0.002240  -0.000403   0.000103
    10  H   -0.041018  -0.003189  -0.000307   0.002811   0.000561   0.000137
    11  H   -0.136461   0.003860   0.003367  -0.004250  -0.000677   0.000153
    12  C   -0.193700  -0.055475   0.307798   0.434926  -0.007555  -0.001554
    13  C   -0.375756   0.017252   0.034013  -0.021729  -0.010146  -0.001460
    14  O   -0.190057   0.011749  -0.005329  -0.035455  -0.000629   0.000450
              7          8          9         10         11         12
     1  C    0.340535  -0.008480  -0.029979  -0.041018  -0.136461  -0.193700
     2  O   -0.015615  -0.000086   0.002868  -0.003189   0.003860  -0.055475
     3  H   -0.026447  -0.021243  -0.001220  -0.000307   0.003367   0.307798
     4  H    0.007713   0.009326   0.002240   0.002811  -0.004250   0.434926
     5  H    0.003177  -0.000334  -0.000403   0.000561  -0.000677  -0.007555
     6  H    0.000022   0.000275   0.000103   0.000137   0.000153  -0.001554
     7  H    0.555308   0.000437  -0.007684   0.007194  -0.013245   0.012772
     8  H    0.000437   0.367821   0.001180   0.000513  -0.000259   0.001141
     9  H   -0.007684   0.001180   0.469110  -0.015493  -0.020773   0.010150
    10  H    0.007194   0.000513  -0.015493   0.439407  -0.017321  -0.007022
    11  H   -0.013245  -0.000259  -0.020773  -0.017321   0.454861   0.014863
    12  C    0.012772   0.001141   0.010150  -0.007022   0.014863   5.416363
    13  C   -0.066388  -0.012832   0.381029   0.401718   0.475390   0.071316
    14  O   -0.033203   0.248189  -0.007182  -0.001632   0.006222   0.173730
             13         14
     1  C   -0.375756  -0.190057
     2  O    0.017252   0.011749
     3  H    0.034013  -0.005329
     4  H   -0.021729  -0.035455
     5  H   -0.010146  -0.000629
     6  H   -0.001460   0.000450
     7  H   -0.066388  -0.033203
     8  H   -0.012832   0.248189
     9  H    0.381029  -0.007182
    10  H    0.401718  -0.001632
    11  H    0.475390   0.006222
    12  C    0.071316   0.173730
    13  C    5.599379   0.096585
    14  O    0.096585   8.098503
 Mulliken atomic charges:
              1
     1  C    0.249337
     2  O   -0.726846
     3  H    0.210937
     4  H    0.253532
     5  H    0.409560
     6  H    0.397806
     7  H    0.235422
     8  H    0.414352
     9  H    0.216055
    10  H    0.233641
    11  H    0.234270
    12  C   -0.177753
    13  C   -0.588372
    14  O   -0.361943
 Sum of Mulliken atomic charges =   1.00000
 Mulliken charges with hydrogens summed into heavy atoms:
              1
     1  C    0.484759
     2  O    0.080520
    12  C    0.286716
    13  C    0.095595
    14  O    0.052410
 Sum of Mulliken charges with hydrogens summed into heavy atoms =   1.00000
 APT atomic charges:
              1
     1  C   -0.036415
     2  O   -1.509325
     3  H    0.468064
     4  H    0.478023
     5  H    0.769209
     6  H    0.813473
     7  H    0.446381
     8  H    0.723881
     9  H    0.541462
    10  H    0.448313
    11  H    0.472286
    12  C   -0.580140
    13  C   -1.321389
    14  O   -0.713824
 Sum of APT charges=   1.00000
 APT Atomic charges with hydrogens summed into heavy atoms:
              1
     1  C    0.409966
     2  O    0.073357
     3  H    0.000000
     4  H    0.000000
     5  H    0.000000
     6  H    0.000000
     7  H    0.000000
     8  H    0.000000
     9  H    0.000000
    10  H    0.000000
    11  H    0.000000
    12  C    0.365947
    13  C    0.140673
    14  O    0.010057
 Sum of APT charges=   1.00000
 Electronic spatial extent (au):  <R**2>=            555.3645
 Charge=              1.0000 electrons
 Dipole moment (field-independent basis, Debye):
    X=              1.8948    Y=             -1.0803    Z=             -0.6706  Tot=              2.2819
 Quadrupole moment (field-independent basis, Debye-Ang):
   XX=            -15.5520   YY=            -21.6793   ZZ=            -23.4783
   XY=              0.8491   XZ=              2.7563   YZ=              1.8553
 Traceless Quadrupole moment (field-independent basis, Debye-Ang):
   XX=              4.6845   YY=             -1.4427   ZZ=             -3.2418
   XY=              0.8491   XZ=              2.7563   YZ=              1.8553
 Octapole moment (field-independent basis, Debye-Ang**2):
  XXX=             40.7734  YYY=              0.2431  ZZZ=             -0.3697  XYY=             -2.2416
  XXY=            -18.3676  XXZ=             -6.2402  XZZ=              2.1466  YZZ=             -4.3669
  YYZ=             -2.0241  XYZ=             -0.9962
 Hexadecapole moment (field-independent basis, Debye-Ang**3):
 XXXX=           -230.0672 YYYY=           -187.2782 ZZZZ=            -52.6772 XXXY=            -19.2492
 XXXZ=             22.9681 YYYX=              3.2272 YYYZ=              3.0028 ZZZX=              1.9735
 ZZZY=              3.4888 XXYY=            -80.7541 XXZZ=            -47.5036 YYZZ=            -40.9260
 XXYZ=             14.2124 YYXZ=              2.1151 ZZXY=             -1.6985
 N-N= 1.912782932385D+02 E-N=-1.004312348044D+03  KE= 2.673375602391D+02
  Exact polarizability:   0.000   0.000   0.000   0.000   0.000   0.000
 Approx polarizability:  76.895   6.862  61.268   0.571   0.952  55.091
 PrsmSu:  requested number of processors reduced to:  10 ShMem   1 Linda.
 PrsmSu:  requested number of processors reduced to:  10 ShMem   1 Linda.
 Calling FoFJK, ICntrl=    100147 FMM=F ISym2X=0 I1Cent= 0 IOpClX= 0 NMat=1 NMatS=1 NMatT=0.
 CoulSu:  requested number of processors reduced to:  10 ShMem   1 Linda.
 CalDSu:  requested number of processors reduced to:  23 ShMem   1 Linda.
 ***** Axes restored to original set *****
 -------------------------------------------------------------------
 Center     Atomic                   Forces (Hartrees/Bohr)
 Number     Number              X              Y              Z
 -------------------------------------------------------------------
      1        6           0.001893946   -0.001154069   -0.001087307
      2        8          -0.001183926    0.002364456    0.003588279
      3        1           0.000293256   -0.000199922   -0.000347668
      4        1           0.000265460   -0.000291334   -0.000306108
      5        1           0.000361710   -0.001157346   -0.000966979
      6        1           0.000309878   -0.001858966   -0.000926610
      7        1           0.000099863   -0.000187587   -0.000157487
      8        1           0.000540100   -0.000600421   -0.001103286
      9        1           0.000048452   -0.000438882   -0.000520501
     10        1          -0.000276559   -0.000145987   -0.000384167
     11        1          -0.000024288   -0.000423391   -0.000169751
     12        6           0.000876942   -0.001372549   -0.000782213
     13        6           0.000418951    0.000111448    0.000239890
     14        8          -0.002669026    0.000482519    0.003516989
 -------------------------------------------------------------------
 Cartesian Forces:  Max     0.003588279 RMS     0.001188999
 -----------------------------------------------------------------------------------------------
                       Internal Coordinate Forces (Hartree/Bohr or radian)
  Cent   Atom   N1       Length/X         N2         Alpha/Y        N3         Beta/Z          J
 -----------------------------------------------------------------------------------------------
      1  C 
      2  O        1   0.001695(     1)
      3  H        1   0.000200(     2)      2   0.001690(    14)
      4  H        1   0.000390(     3)      2   0.001287(    15)      3   0.002102(    26)     0
      5  H        2   0.000267(     4)      1  -0.002629(    16)      4   0.000758(    27)     0
      6  H        2  -0.002053(     5)      1   0.000644(    17)      4  -0.002860(    28)     0
      7  H        1  -0.000213(     6)      2   0.000272(    18)      6   0.000170(    29)     0
      8  H        1   0.000922(     7)      2   0.003114(    19)      6   0.002713(    30)     0
      9  H        1   0.000290(     8)      2   0.001734(    20)      6  -0.001506(    31)     0
     10  H        1   0.000354(     9)      2   0.001218(    21)      6   0.000673(    32)     0
     11  H        1   0.000125(    10)      2   0.000831(    22)      6  -0.001433(    33)     0
     12  C        1  -0.001417(    11)      2   0.001125(    23)      6   0.001849(    34)     0
     13  C        1  -0.000455(    12)     12  -0.000287(    24)      2  -0.000428(    35)     0
     14  O       12  -0.003139(    13)      1  -0.008664(    25)     13   0.000805(    36)     0
 -----------------------------------------------------------------------------------------------
 Internal  Forces:  Max     0.008663846 RMS     0.002063758

 GradGradGradGradGradGradGradGradGradGradGradGradGradGradGradGradGradGrad
 Berny optimization.
 Search for a saddle point.
 Step number   1 out of a maximum of   46
 All quantities printed in internal units (Hartrees-Bohrs-Radians)
 Swaping is turned off.
 Second derivative matrix not updated -- analytic derivatives used.
 ITU=  0
     Eigenvalues ---   -0.00551  -0.00005   0.00449   0.00742   0.01194
     Eigenvalues ---    0.01635   0.01854   0.02506   0.03890   0.05629
     Eigenvalues ---    0.06861   0.07103   0.07508   0.07881   0.10973
     Eigenvalues ---    0.12740   0.20139   0.28667   0.30678   0.33133
     Eigenvalues ---    0.36455   0.50502   0.52805   0.53125   0.53671
     Eigenvalues ---    0.75133   0.97043   1.29857   1.31765   1.48130
     Eigenvalues ---    2.66685   2.92653   5.96877   6.34864  11.45763
     Eigenvalues ---   19.55384
 Eigenvectors required to have negative eigenvalues:
                          B1        B7        A12       D8        A7
   1                    0.67012  -0.47129  -0.29974  -0.19479  -0.17680
                          A10       A8        D11       D10       D6
   1                   -0.16314   0.14719   0.13280   0.12419   0.11894
 RFO step:  Lambda0=9.143018654D-04 Lambda=-1.57182199D-03.
 Linear search not attempted -- option 19 set.
 Maximum step size (   0.300) exceeded in Quadratic search.
    -- Step size scaled by   0.622
 Variable       Old X    -DE/DX   Delta X   Delta X   Delta X     New X
                                 (Linear)    (Quad)   (Total)
    B1        4.52368   0.00169   0.00000  -0.13997  -0.13997   4.38371
    B2        4.13546   0.00020   0.00000  -0.00217  -0.00217   4.13329
    B3        4.13143   0.00039   0.00000   0.00370   0.00370   4.13513
    B4        1.83232   0.00027   0.00000   0.00011   0.00011   1.83243
    B5        1.83213  -0.00205   0.00000  -0.00261  -0.00261   1.82951
    B6        2.05495  -0.00021   0.00000  -0.00011  -0.00011   2.05484
    B7        4.66543   0.00092   0.00000   0.10596   0.10596   4.77138
    B8        4.00764   0.00029   0.00000  -0.02073  -0.02073   3.98690
    B9        4.05764   0.00035   0.00000   0.00476   0.00476   4.06241
   B10        3.89001   0.00013   0.00000   0.04353   0.04353   3.93354
   B11        2.77574  -0.00142   0.00000   0.00896   0.00896   2.78470
   B12        2.77044  -0.00046   0.00000   0.00530   0.00530   2.77574
   B13        2.76941  -0.00314   0.00000  -0.01449  -0.01449   2.75492
    A1        1.32473   0.00169   0.00000   0.06639   0.06639   1.39111
    A2        1.55717   0.00129   0.00000   0.00861   0.00861   1.56577
    A3        2.23311  -0.00263   0.00000  -0.07154  -0.07154   2.16156
    A4        2.20141   0.00064   0.00000   0.06629   0.06629   2.26770
    A5        1.44759   0.00027   0.00000   0.04482   0.04482   1.49241
    A6        2.26745   0.00311   0.00000   0.06966   0.06966   2.33711
    A7        2.12207   0.00173   0.00000   0.04206   0.04206   2.16414
    A8        1.84210   0.00122   0.00000  -0.08810  -0.08810   1.75400
    A9        1.28607   0.00083   0.00000   0.01243   0.01243   1.29851
   A10        1.59744   0.00113   0.00000   0.05066   0.05066   1.64810
   A11        2.17240  -0.00029   0.00000  -0.00933  -0.00933   2.16307
   A12        1.45773  -0.00866   0.00000   0.02673   0.02673   1.48446
    D1        0.83163   0.00210   0.00000   0.01030   0.01030   0.84193
    D2       -0.88397   0.00076   0.00000   0.03629   0.03629  -0.84767
    D3        2.42580  -0.00286   0.00000  -0.04358  -0.04358   2.38221
    D4       -0.06286   0.00017   0.00000  -0.03401  -0.03401  -0.09687
    D5        1.21377   0.00271   0.00000   0.00762   0.00762   1.22140
    D6       -1.70379  -0.00151   0.00000  -0.09681  -0.09681  -1.80060
    D7       -2.61656   0.00067   0.00000  -0.03900  -0.03900  -2.65555
    D8       -1.92924  -0.00143   0.00000   0.03988   0.03988  -1.88936
    D9        1.96681   0.00185   0.00000  -0.04091  -0.04091   1.92590
   D10       -1.86124  -0.00043   0.00000   0.00485   0.00485  -1.85639
   D11        1.51492   0.00081   0.00000  -0.06216  -0.06216   1.45276
         Item               Value     Threshold  Converged?
 Maximum Force            0.008664     0.000450     NO 
 RMS     Force            0.002064     0.000300     NO 
 Maximum Displacement     0.139973     0.001800     NO 
 RMS     Displacement     0.050000     0.001200     NO 
 Predicted change in Energy=-2.840527D-04
 GradGradGradGradGradGradGradGradGradGradGradGradGradGradGradGradGradGrad

 ---------------------------------------------------------------------------------------------------
                            Z-MATRIX (ANGSTROMS AND DEGREES)
   CD    Cent   Atom    N1       Length/X        N2       Alpha/Y        N3        Beta/Z          J
 ---------------------------------------------------------------------------------------------------
      1      1  C 
      2      2  O        1   2.319759(     1)
      3      3  H        1   2.187240(     2)      2   79.705(    14)
      4      4  H        1   2.188216(     3)      2   89.712(    15)      3   48.239(    26)      0
      5      5  H        2   0.969680(     4)      1  123.849(    16)      4  -48.568(    27)      0
      6      6  H        2   0.968137(     5)      1  129.930(    17)      4  136.491(    28)      0
      7      7  H        1   1.087376(     6)      2   85.509(    18)      6   -5.550(    29)      0
      8      8  H        1   2.524906(     7)      2  133.907(    19)      6   69.981(    30)      0
      9      9  H        1   2.109779(     8)      2  123.996(    20)      6 -103.167(    31)      0
     10     10  H        1   2.149733(     9)      2  100.497(    21)      6 -152.152(    32)      0
     11     11  H        1   2.081537(    10)      2   74.399(    22)      6 -108.252(    33)      0
     12     12  C        1   1.473599(    11)      2   94.429(    23)      6  110.346(    34)      0
     13     13  C        1   1.468861(    12)     12  123.935(    24)      2 -106.363(    35)      0
     14     14  O       12   1.457843(    13)      1   85.053(    25)     13   83.237(    36)      0
 ---------------------------------------------------------------------------------------------------
                         Z-Matrix orientation:                         
 ---------------------------------------------------------------------
 Center     Atomic      Atomic             Coordinates (Angstroms)
 Number     Number       Type             X           Y           Z
 ---------------------------------------------------------------------
      1          6           0        0.000000    0.000000    0.000000
      2          8           0        0.000000    0.000000    2.319759
      3          1           0        2.152026    0.000000    0.390901
      4          1           0        1.457395   -1.632229    0.010991
      5          1           0       -0.095449   -0.799656    2.859870
      6          1           0        0.022645    0.742055    2.941154
      7          1           0       -0.071887    1.081651    0.085148
      8          1           0        1.727409    0.570322   -1.750983
      9          1           0       -1.714550   -0.346295   -1.179647
     10          1           0       -1.043940   -1.837976   -0.391645
     11          1           0       -1.922244   -0.569559    0.559801
     12          6           0        1.361313   -0.552602   -0.113802
     13          6           0       -1.221887   -0.765972   -0.278981
     14          8           0        1.233811   -0.239424   -1.531888
 ---------------------------------------------------------------------
                    Distance matrix (angstroms):
                    1          2          3          4          5
     1  C    0.000000
     2  O    2.319759   0.000000
     3  H    2.187240   2.889933   0.000000
     4  H    2.188216   3.180972   1.814116   0.000000
     5  H    2.971097   0.969680   3.433134   3.349719   0.000000
     6  H    3.033405   0.968137   3.404218   4.035045   1.548362
     7  H    1.087376   2.483672   2.491835   3.115982   3.352455
     8  H    2.524906   4.458716   2.256819   2.833495   5.143891
     9  H    2.109779   3.912218   4.187714   3.623876   4.375468
    10  H    2.149733   3.437976   3.768917   2.541874   3.542611
    11  H    2.081537   2.667747   4.117354   3.585027   2.946259
    12  C    1.473599   2.842668   1.088724   1.091054   3.320530
    13  C    1.468861   2.972066   3.524024   2.830731   3.335024
    14  O    1.981488   4.051519   2.144192   2.090543   4.622590
                    6          7          8          9         10
     6  H    0.000000
     7  H    2.877679   0.000000
     8  H    4.995184   2.621125   0.000000
     9  H    4.602538   2.517355   3.607449   0.000000
    10  H    4.347610   3.113910   3.915108   1.815427   0.000000
    11  H    3.342718   2.524997   4.467552   1.765974   1.812609
    12  C    3.577838   2.182756   2.018749   3.261828   2.741282
    13  C    3.767264   2.206536   3.556799   1.109074   1.092497
    14  O    4.736912   2.462700   0.973309   2.971250   3.007270
                   11         12         13         14
    11  H    0.000000
    12  C    3.351981   0.000000
    13  C    1.110241   2.597256   0.000000
    14  O    3.800637   1.457843   2.806686   0.000000
 Stoichiometry    C3H9O2(1+)
 Framework group  C1[X(C3H9O2)]
 Deg. of freedom    36
 Full point group                 C1      NOp   1
 Largest Abelian subgroup         C1      NOp   1
 Largest concise Abelian subgroup C1      NOp   1
                         Standard orientation:                         
 ---------------------------------------------------------------------
 Center     Atomic      Atomic             Coordinates (Angstroms)
 Number     Number       Type             X           Y           Z
 ---------------------------------------------------------------------
      1          6           0       -0.050649    0.238824   -0.353232
      2          8           0        2.108940   -0.555343   -0.058682
      3          1           0       -0.462485   -1.868641    0.062702
      4          1           0       -0.660727   -0.768177    1.491231
      5          1           0        2.599643   -0.489398    0.775070
      6          1           0        2.722438   -0.940394   -0.701057
      7          1           0        0.117461    0.054697   -1.411637
      8          1           0       -2.270237   -0.862426   -0.838852
      9          1           0       -0.550944    2.285826   -0.456455
     10          1           0       -0.145869    1.705679    1.215405
     11          1           0        1.130282    1.926404   -0.052771
     12          6           0       -0.679458   -0.857830    0.404028
     13          6           0        0.085527    1.611370    0.151868
     14          8           0       -1.935450   -0.319377   -0.103770
 ---------------------------------------------------------------------
 Rotational constants (GHZ):      6.5735472      2.9708236      2.2605226
 Standard basis: 6-31++G(d,p) (6D, 7F)
 The following finite field(s) will be applied:
 An electric field of              0.0000  0.0000 -0.0050
 There are   149 symmetry adapted basis functions of A   symmetry.
 Integral buffers will be    131072 words long.
 Raffenetti 2 integral format.
 Two-electron integral symmetry is turned on.
   149 basis functions,   232 primitive gaussians,   149 cartesian basis functions
    21 alpha electrons       21 beta electrons
       nuclear repulsion energy       191.8874453775 Hartrees.
 NAtoms=   14 NActive=   14 NUniq=   14 SFac= 1.00D+00 NAtFMM=   50 NAOKFM=F Big=F
 One-electron integrals computed using PRISM.
 PrsmSu:  requested number of processors reduced to:  10 ShMem   1 Linda.
 NBasis=   149 RedAO= T  NBF=   149
 NBsUse=   149 1.00D-06 NBFU=   149
 The nuclear repulsion energy is now       191.8874453775 hartrees.
 Initial guess read from the read-write file.
 B after Tr=     0.000000    0.000000    0.000000
         Rot=    1.000000    0.000000    0.000000    0.000000 Ang=   0.00 deg.
 Initial guess orbital symmetries:
       Occupied  (A) (A) (A) (A) (A) (A) (A) (A) (A) (A) (A) (A)
                 (A) (A) (A) (A) (A) (A) (A) (A) (A)
       Virtual   (A) (A) (A) (A) (A) (A) (A) (A) (A) (A) (A) (A)
                 (A) (A) (A) (A) (A) (A) (A) (A) (A) (A) (A) (A)
                 (A) (A) (A) (A) (A) (A) (A) (A) (A) (A) (A) (A)
                 (A) (A) (A) (A) (A) (A) (A) (A) (A) (A) (A) (A)
                 (A) (A) (A) (A) (A) (A) (A) (A) (A) (A) (A) (A)
                 (A) (A) (A) (A) (A) (A) (A) (A) (A) (A) (A) (A)
                 (A) (A) (A) (A) (A) (A) (A) (A) (A) (A) (A) (A)
                 (A) (A) (A) (A) (A) (A) (A) (A) (A) (A) (A) (A)
                 (A) (A) (A) (A) (A) (A) (A) (A) (A) (A) (A) (A)
                 (A) (A) (A) (A) (A) (A) (A) (A) (A) (A) (A) (A)
                 (A) (A) (A) (A) (A) (A) (A) (A)
 Harris functional with IExCor=  402 diagonalized for initial guess.
 ExpMin= 3.60D-02 ExpMax= 5.48D+03 ExpMxC= 8.25D+02 IAcc=3 IRadAn=         0 AccDes= 0.00D+00
 HarFok:  IExCor=  402 AccDes= 0.00D+00 IRadAn=         0 IDoV= 1
 ScaDFX=  1.000000  1.000000  1.000000  1.000000
 FoFCou: FMM=F IPFlag=           0 FMFlag=      100000 FMFlg1=           0
         NFxFlg=           0 DoJE=T BraDBF=F KetDBF=T FulRan=T
         Omega=  0.000000  0.000000  1.000000  0.000000  0.000000 ICntrl=     500 IOpCl=  0
         NMat0=    1 NMatS0=    1 NMatT0=    0 NMatD0=    1 NMtDS0=    0 NMtDT0=    0
         I1Cent=           4 NGrid=           0.
 Petite list used in FoFCou.
 Requested convergence on RMS density matrix=1.00D-08 within 128 cycles.
 Requested convergence on MAX density matrix=1.00D-06.
 Requested convergence on             energy=1.00D-06.
 No special actions if energy rises.
 SCF Done:  E(RB3LYP) =  -269.888977220     A.U. after   11 cycles
             Convg  =    0.7154D-08             -V/T =  2.0097
 PrsmSu:  requested number of processors reduced to:  10 ShMem   1 Linda.
 PrsmSu:  requested number of processors reduced to:  23 ShMem   1 Linda.
 Calling FoFJK, ICntrl=      2127 FMM=F ISym2X=0 I1Cent= 0 IOpClX= 0 NMat=1 NMatS=1 NMatT=0.
 CoulSu:  requested number of processors reduced to:  16 ShMem   1 Linda.
 ***** Axes restored to original set *****
 -------------------------------------------------------------------
 Center     Atomic                   Forces (Hartrees/Bohr)
 Number     Number              X              Y              Z
 -------------------------------------------------------------------
      1        6           0.001363041   -0.001903796   -0.000082617
      2        8          -0.000710810    0.000018553    0.001738022
      3        1           0.000083640   -0.000659225   -0.000133876
      4        1           0.000302601    0.001298261   -0.000360806
      5        1           0.000205279   -0.000571615   -0.000477321
      6        1           0.000374336   -0.000472415   -0.000470613
      7        1          -0.000321767   -0.000094871    0.000032596
      8        1          -0.000246561   -0.001390317    0.000088094
      9        1           0.002627808   -0.004105577    0.005430985
     10        1          -0.001399538    0.001349365   -0.000238037
     11        1           0.003934137   -0.002382992   -0.005933401
     12        6           0.000327229   -0.002073121   -0.000182763
     13        6          -0.005450664    0.004868574    0.000560140
     14        8          -0.000237676    0.001233212    0.000664469
 -------------------------------------------------------------------
 Cartesian Forces:  Max     0.005933401 RMS     0.002117482
 -----------------------------------------------------------------------------------------------
                       Internal Coordinate Forces (Hartree/Bohr or radian)
  Cent   Atom   N1       Length/X         N2         Alpha/Y        N3         Beta/Z          J
 -----------------------------------------------------------------------------------------------
      1  C 
      2  O        1   0.000790(     1)
      3  H        1   0.000058(     2)      2   0.000606(    14)
      4  H        1  -0.000769(     3)      2   0.001476(    15)      3   0.000191(    26)     0
      5  H        2   0.000185(     4)      1  -0.001281(    16)      4   0.000413(    27)     0
      6  H        2  -0.000655(     5)      1  -0.000119(    17)      4  -0.005113(    28)     0
      7  H        1  -0.000071(     6)      2  -0.000079(    18)      6  -0.000671(    29)     0
      8  H        1  -0.000544(     7)      2   0.001914(    19)      6   0.004273(    30)     0
      9  H        1  -0.004498(     8)      2  -0.014022(    20)      6  -0.015022(    31)     0
     10  H        1  -0.000431(     9)      2   0.001308(    21)      6   0.007523(    32)     0
     11  H        1  -0.004577(    10)      2   0.019205(    22)      6  -0.012891(    33)     0
     12  C        1   0.000360(    11)      2   0.005228(    23)      6   0.021355(    34)     0
     13  C        1   0.001889(    12)     12   0.019571(    24)      2  -0.004666(    35)     0
     14  O       12  -0.000361(    13)      1  -0.002114(    25)     13   0.003129(    36)     0
 -----------------------------------------------------------------------------------------------
 Internal  Forces:  Max     0.021355040 RMS     0.007487231

 GradGradGradGradGradGradGradGradGradGradGradGradGradGradGradGradGradGrad
 Berny optimization.
 Search for a saddle point.
 Step number   2 out of a maximum of   46
 All quantities printed in internal units (Hartrees-Bohrs-Radians)
 Swaping is turned off.
 Update second derivatives using D2CorN and points    1    2
 ITU=  0  0
     Eigenvalues ---   -0.00506  -0.00029   0.00408   0.01155   0.01431
     Eigenvalues ---    0.01602   0.01889   0.02536   0.03922   0.05630
     Eigenvalues ---    0.06865   0.07114   0.07507   0.07879   0.10982
     Eigenvalues ---    0.12742   0.20138   0.28668   0.30678   0.33137
     Eigenvalues ---    0.36455   0.50502   0.52805   0.53124   0.53670
     Eigenvalues ---    0.75132   0.97047   1.29857   1.31765   1.48130
     Eigenvalues ---    2.66695   2.92722   5.96880   6.34871  11.45771
     Eigenvalues ---   19.55388
 Eigenvectors required to have negative eigenvalues:
                          B1        B7        A12       A10       D10
   1                    0.68956  -0.51777  -0.31621  -0.19435   0.18865
                          D11       A2        A1        B13       A9
   1                    0.13525  -0.13291  -0.09261   0.08568  -0.06588
 RFO step:  Lambda0=1.830273739D-05 Lambda=-2.57781576D-03.
 Linear search not attempted -- option 19 set.
 Maximum step size (   0.300) exceeded in Quadratic search.
    -- Step size scaled by   0.281
 Variable       Old X    -DE/DX   Delta X   Delta X   Delta X     New X
                                 (Linear)    (Quad)   (Total)
    B1        4.38371   0.00079   0.00000   0.00924   0.00924   4.39295
    B2        4.13329   0.00006   0.00000   0.00006   0.00006   4.13334
    B3        4.13513  -0.00077   0.00000   0.00530   0.00530   4.14043
    B4        1.83243   0.00019   0.00000  -0.00003  -0.00003   1.83240
    B5        1.82951  -0.00066   0.00000  -0.00044  -0.00044   1.82908
    B6        2.05484  -0.00007   0.00000  -0.00079  -0.00079   2.05406
    B7        4.77138  -0.00054   0.00000   0.00405   0.00405   4.77544
    B8        3.98690  -0.00450   0.00000   0.01064   0.01064   3.99755
    B9        4.06241  -0.00043   0.00000  -0.00220  -0.00220   4.06021
   B10        3.93354  -0.00458   0.00000  -0.00861  -0.00861   3.92493
   B11        2.78470   0.00036   0.00000   0.00001   0.00001   2.78471
   B12        2.77574   0.00189   0.00000   0.00037   0.00037   2.77612
   B13        2.75492  -0.00036   0.00000   0.00155   0.00155   2.75647
    A1        1.39111   0.00061   0.00000   0.02018   0.02018   1.41130
    A2        1.56577   0.00148   0.00000   0.01715   0.01715   1.58292
    A3        2.16156  -0.00128   0.00000  -0.01373  -0.01373   2.14783
    A4        2.26770  -0.00012   0.00000   0.02728   0.02728   2.29498
    A5        1.49241  -0.00008   0.00000  -0.01742  -0.01742   1.47499
    A6        2.33711   0.00191   0.00000   0.01702   0.01702   2.35413
    A7        2.16414  -0.01402   0.00000  -0.06221  -0.06221   2.10193
    A8        1.75400   0.00131   0.00000   0.05059   0.05059   1.80460
    A9        1.29851   0.01921   0.00000  -0.03320  -0.03320   1.26530
   A10        1.64810   0.00523   0.00000   0.01822   0.01822   1.66632
   A11        2.16307   0.01957   0.00000  -0.00473  -0.00473   2.15835
   A12        1.48446  -0.00211   0.00000  -0.01029  -0.01029   1.47417
    D1        0.84193   0.00019   0.00000  -0.00166  -0.00166   0.84027
    D2       -0.84767   0.00041   0.00000   0.03243   0.03243  -0.81524
    D3        2.38221  -0.00511   0.00000  -0.09703  -0.09703   2.28519
    D4       -0.09687  -0.00067   0.00000  -0.09522  -0.09522  -0.19209
    D5        1.22140   0.00427   0.00000  -0.10300  -0.10300   1.11840
    D6       -1.80060  -0.01502   0.00000  -0.06025  -0.06025  -1.86084
    D7       -2.65555   0.00752   0.00000  -0.09316  -0.09316  -2.74872
    D8       -1.88936  -0.01289   0.00000  -0.16726  -0.16726  -2.05662
    D9        1.92590   0.02136   0.00000  -0.09474  -0.09474   1.83116
   D10       -1.85639  -0.00467   0.00000  -0.00409  -0.00409  -1.86048
   D11        1.45276   0.00313   0.00000  -0.00586  -0.00586   1.44690
         Item               Value     Threshold  Converged?
 Maximum Force            0.021355     0.000450     NO 
 RMS     Force            0.007487     0.000300     NO 
 Maximum Displacement     0.167262     0.001800     NO 
 RMS     Displacement     0.050000     0.001200     NO 
 Predicted change in Energy=-8.170518D-04
 GradGradGradGradGradGradGradGradGradGradGradGradGradGradGradGradGradGrad

 ---------------------------------------------------------------------------------------------------
                            Z-MATRIX (ANGSTROMS AND DEGREES)
   CD    Cent   Atom    N1       Length/X        N2       Alpha/Y        N3        Beta/Z          J
 ---------------------------------------------------------------------------------------------------
      1      1  C 
      2      2  O        1   2.324647(     1)
      3      3  H        1   2.187271(     2)      2   80.861(    14)
      4      4  H        1   2.191020(     3)      2   90.695(    15)      3   48.144(    26)      0
      5      5  H        2   0.969663(     4)      1  123.062(    16)      4  -46.710(    27)      0
      6      6  H        2   0.967906(     5)      1  131.493(    17)      4  130.932(    28)      0
      7      7  H        1   1.086960(     6)      2   84.510(    18)      6  -11.006(    29)      0
      8      8  H        1   2.527052(     7)      2  134.882(    19)      6   64.080(    30)      0
      9      9  H        1   2.115411(     8)      2  120.432(    20)      6 -106.619(    31)      0
     10     10  H        1   2.148569(     9)      2  103.396(    21)      6 -157.490(    32)      0
     11     11  H        1   2.076982(    10)      2   72.497(    22)      6 -117.836(    33)      0
     12     12  C        1   1.473604(    11)      2   95.473(    23)      6  104.918(    34)      0
     13     13  C        1   1.469059(    12)     12  123.664(    24)      2 -106.598(    35)      0
     14     14  O       12   1.458662(    13)      1   84.464(    25)     13   82.901(    36)      0
 ---------------------------------------------------------------------------------------------------
                         Z-Matrix orientation:                         
 ---------------------------------------------------------------------
 Center     Atomic      Atomic             Coordinates (Angstroms)
 Number     Number       Type             X           Y           Z
 ---------------------------------------------------------------------
      1          6           0        0.000000    0.000000    0.000000
      2          8           0        0.000000    0.000000    2.324647
      3          1           0        2.159508    0.000000    0.347390
      4          1           0        1.461882   -1.631797   -0.026560
      5          1           0       -0.068760   -0.809744    2.853640
      6          1           0        0.091020    0.719266    2.965906
      7          1           0       -0.071589    1.079604    0.103983
      8          1           0        1.695968    0.574322   -1.783210
      9          1           0       -1.799453   -0.298102   -1.071479
     10          1           0       -1.036275   -1.815132   -0.497773
     11          1           0       -1.853875   -0.697697    0.624677
     12          6           0        1.358821   -0.552594   -0.140545
     13          6           0       -1.223176   -0.767509   -0.270005
     14          8           0        1.192803   -0.226419   -1.552545
 ---------------------------------------------------------------------
                    Distance matrix (angstroms):
                    1          2          3          4          5
     1  C    0.000000
     2  O    2.324647   0.000000
     3  H    2.187271   2.927972   0.000000
     4  H    2.191020   3.213726   1.813638   0.000000
     5  H    2.967099   0.969663   3.449950   3.363658   0.000000
     6  H    3.053232   0.967906   3.413592   4.044950   1.541430
     7  H    1.086960   2.470226   2.490500   3.117735   3.336204
     8  H    2.527052   4.481142   2.254811   2.829766   5.150755
     9  H    2.115411   3.854941   4.216092   3.675174   4.320143
    10  H    2.148569   3.512068   3.771211   2.548812   3.630270
    11  H    2.076982   2.610274   4.083003   3.505838   2.857877
    12  C    1.473604   2.868610   1.088367   1.090089   3.327049
    13  C    1.469059   2.969419   3.523181   2.831219   3.330408
    14  O    1.970898   4.062839   2.143720   2.091918   4.620203
                    6          7          8          9         10
     6  H    0.000000
     7  H    2.889099   0.000000
     8  H    5.015074   2.634590   0.000000
     9  H    4.572681   2.503058   3.672281   0.000000
    10  H    4.437459   3.110020   3.850583   1.792473   0.000000
    11  H    3.357344   2.570305   4.474074   1.743441   1.782421
    12  C    3.588173   2.184019   2.020385   3.302438   2.730951
    13  C    3.795884   2.208585   3.551296   1.093068   1.088267
    14  O    4.746014   2.459363   0.973431   3.031528   2.933486
                   11         12         13         14
    11  H    0.000000
    12  C    3.305758   0.000000
    13  C    1.096864   2.594158   0.000000
    14  O    3.774208   1.458662   2.788305   0.000000
 Stoichiometry    C3H9O2(1+)
 Framework group  C1[X(C3H9O2)]
 Deg. of freedom    36
 Full point group                 C1      NOp   1
 Largest Abelian subgroup         C1      NOp   1
 Largest concise Abelian subgroup C1      NOp   1
                         Standard orientation:                         
 ---------------------------------------------------------------------
 Center     Atomic      Atomic             Coordinates (Angstroms)
 Number     Number       Type             X           Y           Z
 ---------------------------------------------------------------------
      1          6           0       -0.052585    0.227957   -0.352455
      2          8           0        2.122983   -0.538579   -0.063819
      3          1           0       -0.478844   -1.874306    0.075269
      4          1           0       -0.676748   -0.766402    1.497474
      5          1           0        2.596986   -0.479778    0.780047
      6          1           0        2.731413   -0.984762   -0.670100
      7          1           0        0.129622    0.032986   -1.406148
      8          1           0       -2.279617   -0.865625   -0.832450
      9          1           0       -0.445818    2.300135   -0.514969
     10          1           0       -0.258728    1.726875    1.173028
     11          1           0        1.138298    1.874796    0.076004
     12          6           0       -0.687603   -0.860448    0.411504
     13          6           0        0.077670    1.603938    0.145386
     14          8           0       -1.933165   -0.310496   -0.111776
 ---------------------------------------------------------------------
 Rotational constants (GHZ):      6.6283394      2.9533745      2.2567197
 Standard basis: 6-31++G(d,p) (6D, 7F)
 The following finite field(s) will be applied:
 An electric field of              0.0000  0.0000 -0.0050
 There are   149 symmetry adapted basis functions of A   symmetry.
 Integral buffers will be    131072 words long.
 Raffenetti 2 integral format.
 Two-electron integral symmetry is turned on.
   149 basis functions,   232 primitive gaussians,   149 cartesian basis functions
    21 alpha electrons       21 beta electrons
       nuclear repulsion energy       191.9951440088 Hartrees.
 NAtoms=   14 NActive=   14 NUniq=   14 SFac= 1.00D+00 NAtFMM=   50 NAOKFM=F Big=F
 One-electron integrals computed using PRISM.
 PrsmSu:  requested number of processors reduced to:  10 ShMem   1 Linda.
 NBasis=   149 RedAO= T  NBF=   149
 NBsUse=   149 1.00D-06 NBFU=   149
 The nuclear repulsion energy is now       191.9951440088 hartrees.
 Initial guess read from the read-write file.
 B after Tr=     0.000000    0.000000    0.000000
         Rot=    1.000000    0.000000    0.000000    0.000000 Ang=   0.00 deg.
 Initial guess orbital symmetries:
       Occupied  (A) (A) (A) (A) (A) (A) (A) (A) (A) (A) (A) (A)
                 (A) (A) (A) (A) (A) (A) (A) (A) (A)
       Virtual   (A) (A) (A) (A) (A) (A) (A) (A) (A) (A) (A) (A)
                 (A) (A) (A) (A) (A) (A) (A) (A) (A) (A) (A) (A)
                 (A) (A) (A) (A) (A) (A) (A) (A) (A) (A) (A) (A)
                 (A) (A) (A) (A) (A) (A) (A) (A) (A) (A) (A) (A)
                 (A) (A) (A) (A) (A) (A) (A) (A) (A) (A) (A) (A)
                 (A) (A) (A) (A) (A) (A) (A) (A) (A) (A) (A) (A)
                 (A) (A) (A) (A) (A) (A) (A) (A) (A) (A) (A) (A)
                 (A) (A) (A) (A) (A) (A) (A) (A) (A) (A) (A) (A)
                 (A) (A) (A) (A) (A) (A) (A) (A) (A) (A) (A) (A)
                 (A) (A) (A) (A) (A) (A) (A) (A) (A) (A) (A) (A)
                 (A) (A) (A) (A) (A) (A) (A) (A)
 Harris functional with IExCor=  402 diagonalized for initial guess.
 ExpMin= 3.60D-02 ExpMax= 5.48D+03 ExpMxC= 8.25D+02 IAcc=3 IRadAn=         0 AccDes= 0.00D+00
 HarFok:  IExCor=  402 AccDes= 0.00D+00 IRadAn=         0 IDoV= 1
 ScaDFX=  1.000000  1.000000  1.000000  1.000000
 FoFCou: FMM=F IPFlag=           0 FMFlag=      100000 FMFlg1=           0
         NFxFlg=           0 DoJE=T BraDBF=F KetDBF=T FulRan=T
         Omega=  0.000000  0.000000  1.000000  0.000000  0.000000 ICntrl=     500 IOpCl=  0
         NMat0=    1 NMatS0=    1 NMatT0=    0 NMatD0=    1 NMtDS0=    0 NMtDT0=    0
         I1Cent=           4 NGrid=           0.
 Petite list used in FoFCou.
 Requested convergence on RMS density matrix=1.00D-08 within 128 cycles.
 Requested convergence on MAX density matrix=1.00D-06.
 Requested convergence on             energy=1.00D-06.
 No special actions if energy rises.
 SCF Done:  E(RB3LYP) =  -269.889230266     A.U. after   11 cycles
             Convg  =    0.3084D-08             -V/T =  2.0095
 PrsmSu:  requested number of processors reduced to:  10 ShMem   1 Linda.
 PrsmSu:  requested number of processors reduced to:  23 ShMem   1 Linda.
 Calling FoFJK, ICntrl=      2127 FMM=F ISym2X=0 I1Cent= 0 IOpClX= 0 NMat=1 NMatS=1 NMatT=0.
 CoulSu:  requested number of processors reduced to:  16 ShMem   1 Linda.
 ***** Axes restored to original set *****
 -------------------------------------------------------------------
 Center     Atomic                   Forces (Hartrees/Bohr)
 Number     Number              X              Y              Z
 -------------------------------------------------------------------
      1        6           0.001231790   -0.001779163   -0.001390194
      2        8          -0.000620750   -0.000764070    0.003035120
      3        1           0.000217378   -0.000540229    0.000021421
      4        1           0.000127342    0.000699374   -0.000217497
      5        1           0.000155316   -0.001149495   -0.000871691
      6        1           0.000514536    0.000640713   -0.000924654
      7        1          -0.000222574   -0.000073242    0.000061010
      8        1          -0.000608004   -0.001092516    0.000284487
      9        1          -0.000744558    0.000924762   -0.001762303
     10        1           0.000751507   -0.001690977   -0.000406343
     11        1          -0.000744691    0.000457257    0.001348535
     12        6           0.000190818   -0.001630696    0.000031739
     13        6           0.000908863    0.000082188    0.000669244
     14        8          -0.000266514    0.001035350    0.000741941
 -------------------------------------------------------------------
 Cartesian Forces:  Max     0.003035120 RMS     0.000968363
 -----------------------------------------------------------------------------------------------
                       Internal Coordinate Forces (Hartree/Bohr or radian)
  Cent   Atom   N1       Length/X         N2         Alpha/Y        N3         Beta/Z          J
 -----------------------------------------------------------------------------------------------
      1  C 
      2  O        1   0.001239(     1)
      3  H        1   0.000218(     2)      2   0.000055(    14)
      4  H        1  -0.000433(     3)      2   0.000922(    15)      3   0.001154(    26)     0
      5  H        2   0.000473(     4)      1  -0.002470(    16)      4   0.000387(    27)     0
      6  H        2  -0.000088(     5)      1  -0.002115(    17)      4  -0.003865(    28)     0
      7  H        1  -0.000052(     6)      2  -0.000136(    18)      6  -0.000464(    29)     0
      8  H        1  -0.000857(     7)      2   0.002159(    19)      6   0.002842(    30)     0
      9  H        1   0.001396(     8)      2   0.004893(    20)      6   0.003564(    31)     0
     10  H        1   0.001160(     9)      2   0.000574(    21)      6  -0.005889(    32)     0
     11  H        1   0.000917(    10)      2  -0.004415(    22)      6   0.002584(    33)     0
     12  C        1   0.000080(    11)      2   0.000555(    23)      6   0.000640(    34)     0
     13  C        1  -0.000923(    12)     12  -0.000774(    24)      2  -0.001260(    35)     0
     14  O       12  -0.000456(    13)      1  -0.002074(    25)     13   0.002630(    36)     0
 -----------------------------------------------------------------------------------------------
 Internal  Forces:  Max     0.005889144 RMS     0.002112880

 GradGradGradGradGradGradGradGradGradGradGradGradGradGradGradGradGradGrad
 Berny optimization.
 Search for a saddle point.
 Step number   3 out of a maximum of   46
 All quantities printed in internal units (Hartrees-Bohrs-Radians)
 Swaping is turned off.
 Update second derivatives using D2CorN and points    1    2    3
 ITU=  0  0  0
     Eigenvalues ---   -0.00536  -0.00260   0.00517   0.01168   0.01497
     Eigenvalues ---    0.01651   0.02272   0.02630   0.03907   0.05630
     Eigenvalues ---    0.06865   0.07111   0.07508   0.07881   0.10980
     Eigenvalues ---    0.12742   0.20139   0.28671   0.30685   0.33130
     Eigenvalues ---    0.36455   0.50503   0.52804   0.53128   0.53670
     Eigenvalues ---    0.75132   0.97049   1.29858   1.31765   1.48131
     Eigenvalues ---    2.66724   2.92893   5.96882   6.34879  11.45783
     Eigenvalues ---   19.55396
 Eigenvectors required to have negative eigenvalues:
                          B1        B7        A12       D10       A10
   1                    0.66730  -0.49952  -0.30620   0.18541  -0.17507
                          D11       D5        D6        A2        D8
   1                    0.13027  -0.12582  -0.12196  -0.11858  -0.10818
 RFO step:  Lambda0=4.523536884D-04 Lambda=-2.60361707D-03.
 Linear search not attempted -- option 19 set.
 Maximum step size (   0.300) exceeded in Quadratic search.
    -- Step size scaled by   0.374
 Variable       Old X    -DE/DX   Delta X   Delta X   Delta X     New X
                                 (Linear)    (Quad)   (Total)
    B1        4.39295   0.00124   0.00000  -0.11763  -0.11763   4.27531
    B2        4.13334   0.00022   0.00000  -0.00423  -0.00423   4.12912
    B3        4.14043  -0.00043   0.00000  -0.00736  -0.00736   4.13307
    B4        1.83240   0.00047   0.00000   0.00029   0.00029   1.83269
    B5        1.82908  -0.00009   0.00000  -0.00021  -0.00021   1.82886
    B6        2.05406  -0.00005   0.00000   0.00071   0.00071   2.05477
    B7        4.77544  -0.00086   0.00000   0.09098   0.09098   4.86641
    B8        3.99755   0.00140   0.00000  -0.01657  -0.01657   3.98098
    B9        4.06021   0.00116   0.00000   0.00191   0.00191   4.06211
   B10        3.92493   0.00092   0.00000   0.01838   0.01838   3.94330
   B11        2.78471   0.00008   0.00000   0.00944   0.00944   2.79415
   B12        2.77612  -0.00092   0.00000  -0.00143  -0.00143   2.77469
   B13        2.75647  -0.00046   0.00000  -0.01525  -0.01525   2.74123
    A1        1.41130   0.00006   0.00000   0.02146   0.02146   1.43276
    A2        1.58292   0.00092   0.00000   0.01799   0.01799   1.60091
    A3        2.14783  -0.00247   0.00000  -0.00704  -0.00704   2.14080
    A4        2.29498  -0.00212   0.00000  -0.00715  -0.00715   2.28783
    A5        1.47499  -0.00014   0.00000   0.01993   0.01993   1.49492
    A6        2.35413   0.00216   0.00000   0.00698   0.00698   2.36112
    A7        2.10193   0.00489   0.00000   0.04534   0.04534   2.14727
    A8        1.80460   0.00057   0.00000  -0.04109  -0.04109   1.76351
    A9        1.26530  -0.00442   0.00000   0.02589   0.02589   1.29119
   A10        1.66632   0.00056   0.00000   0.03390   0.03390   1.70022
   A11        2.15835  -0.00077   0.00000  -0.00347  -0.00347   2.15488
   A12        1.47417  -0.00207   0.00000   0.05374   0.05374   1.52791
    D1        0.84027   0.00115   0.00000  -0.00318  -0.00318   0.83708
    D2       -0.81524   0.00039   0.00000  -0.03279  -0.03279  -0.84803
    D3        2.28519  -0.00387   0.00000  -0.09274  -0.09274   2.19244
    D4       -0.19209  -0.00046   0.00000  -0.09131  -0.09131  -0.28341
    D5        1.11840   0.00284   0.00000  -0.07714  -0.07714   1.04126
    D6       -1.86084   0.00356   0.00000  -0.11666  -0.11666  -1.97750
    D7       -2.74872  -0.00589   0.00000  -0.09046  -0.09046  -2.83917
    D8       -2.05662   0.00258   0.00000  -0.03239  -0.03239  -2.08902
    D9        1.83116   0.00064   0.00000  -0.09504  -0.09504   1.73612
   D10       -1.86048  -0.00126   0.00000  -0.02308  -0.02308  -1.88356
   D11        1.44690   0.00263   0.00000  -0.02641  -0.02641   1.42049
         Item               Value     Threshold  Converged?
 Maximum Force            0.005889     0.000450     NO 
 RMS     Force            0.002113     0.000300     NO 
 Maximum Displacement     0.117631     0.001800     NO 
 RMS     Displacement     0.050000     0.001200     NO 
 Predicted change in Energy=-5.703584D-05
 GradGradGradGradGradGradGradGradGradGradGradGradGradGradGradGradGradGrad

 ---------------------------------------------------------------------------------------------------
                            Z-MATRIX (ANGSTROMS AND DEGREES)
   CD    Cent   Atom    N1       Length/X        N2       Alpha/Y        N3        Beta/Z          J
 ---------------------------------------------------------------------------------------------------
      1      1  C 
      2      2  O        1   2.262399(     1)
      3      3  H        1   2.185036(     2)      2   82.091(    14)
      4      4  H        1   2.187126(     3)      2   91.726(    15)      3   47.961(    26)      0
      5      5  H        2   0.969818(     4)      1  122.659(    16)      4  -48.588(    27)      0
      6      6  H        2   0.967793(     5)      1  131.083(    17)      4  125.618(    28)      0
      7      7  H        1   1.087336(     6)      2   85.653(    18)      6  -16.238(    29)      0
      8      8  H        1   2.575195(     7)      2  135.282(    19)      6   59.660(    30)      0
      9      9  H        1   2.106642(     8)      2  123.030(    20)      6 -113.303(    31)      0
     10     10  H        1   2.149578(     9)      2  101.042(    21)      6 -162.673(    32)      0
     11     11  H        1   2.086706(    10)      2   73.980(    22)      6 -119.692(    33)      0
     12     12  C        1   1.478598(    11)      2   97.415(    23)      6   99.473(    34)      0
     13     13  C        1   1.468302(    12)     12  123.465(    24)      2 -107.920(    35)      0
     14     14  O       12   1.450594(    13)      1   87.543(    25)     13   81.388(    36)      0
 ---------------------------------------------------------------------------------------------------
                         Z-Matrix orientation:                         
 ---------------------------------------------------------------------
 Center     Atomic      Atomic             Coordinates (Angstroms)
 Number     Number       Type             X           Y           Z
 ---------------------------------------------------------------------
      1          6           0        0.000000    0.000000    0.000000
      2          8           0        0.000000    0.000000    2.262399
      3          1           0        2.164250    0.000000    0.300667
      4          1           0        1.463903   -1.623629   -0.065857
      5          1           0       -0.093136   -0.811161    2.785745
      6          1           0        0.155946    0.712619    2.898385
      7          1           0       -0.073632    1.081704    0.082426
      8          1           0        1.723306    0.559811   -1.829879
      9          1           0       -1.733974   -0.335761   -1.148277
     10          1           0       -1.044388   -1.833152   -0.411693
     11          1           0       -1.914432   -0.598045    0.575879
     12          6           0        1.361220   -0.544900   -0.190830
     13          6           0       -1.223675   -0.765531   -0.269241
     14          8           0        1.219716   -0.235753   -1.601018
 ---------------------------------------------------------------------
                    Distance matrix (angstroms):
                    1          2          3          4          5
     1  C    0.000000
     2  O    2.262399   0.000000
     3  H    2.185036   2.921022   0.000000
     4  H    2.187126   3.193737   1.805823   0.000000
     5  H    2.902935   0.969818   3.453894   3.349045   0.000000
     6  H    2.988776   0.967793   3.359948   3.994438   1.548107
     7  H    1.087336   2.434705   2.495162   3.115257   3.300190
     8  H    2.575195   4.475479   2.246564   2.818950   5.146165
[...]
    B5        1.82955   0.00000   0.00000   0.00000   0.00000   1.82955
    B6        2.05344   0.00000   0.00000   0.00000   0.00000   2.05344
    B7        4.68517  -0.00004   0.00000  -0.00043  -0.00043   4.68474
    B8        3.99081  -0.00004   0.00000   0.00008   0.00008   3.99089
    B9        4.06647   0.00003   0.00000   0.00006   0.00006   4.06653
   B10        3.94522   0.00000   0.00000  -0.00016  -0.00016   3.94506
   B11        2.77737   0.00001   0.00000  -0.00001  -0.00001   2.77736
   B12        2.78239   0.00000   0.00000  -0.00001  -0.00001   2.78238
   B13        2.76724   0.00002   0.00000   0.00005   0.00005   2.76729
    A1        1.46223   0.00001   0.00000   0.00004   0.00004   1.46227
    A2        1.60376   0.00000   0.00000  -0.00001  -0.00001   1.60374
    A3        2.07581  -0.00002   0.00000  -0.00011  -0.00011   2.07570
    A4        2.24500  -0.00002   0.00000  -0.00028  -0.00028   2.24472
    A5        1.46710   0.00001   0.00000  -0.00007  -0.00007   1.46703
    A6        2.41587   0.00013   0.00000   0.00011   0.00011   2.41599
    A7        2.10451  -0.00013   0.00000  -0.00036  -0.00036   2.10415
    A8        1.69640  -0.00005   0.00000   0.00044   0.00044   1.69683
    A9        1.24789   0.00001   0.00000  -0.00026  -0.00026   1.24764
   A10        1.69369  -0.00010   0.00000  -0.00003  -0.00003   1.69366
   A11        2.15946   0.00010   0.00000  -0.00006  -0.00006   2.15939
   A12        1.42444   0.00006   0.00000  -0.00014  -0.00014   1.42430
    D1        0.84449   0.00001   0.00000   0.00001   0.00001   0.84450
    D2       -1.10136  -0.00001   0.00000  -0.00044  -0.00044  -1.10180
    D3        1.45019  -0.00001   0.00000  -0.00113  -0.00113   1.44906
    D4       -1.02801   0.00000   0.00000  -0.00112  -0.00112  -1.02913
    D5        0.25690   0.00010   0.00000  -0.00121  -0.00121   0.25570
    D6       -2.76168  -0.00005   0.00000  -0.00071  -0.00071  -2.76239
    D7       -3.58011  -0.00009   0.00000  -0.00119  -0.00119  -3.58130
    D8       -2.81881  -0.00002   0.00000  -0.00164  -0.00164  -2.82045
    D9        1.00194   0.00007   0.00000  -0.00110  -0.00110   1.00084
   D10       -1.80872  -0.00032   0.00000  -0.00007  -0.00007  -1.80879
   D11        1.46645   0.00015   0.00000  -0.00012  -0.00012   1.46633
         Item               Value     Threshold  Converged?
 Maximum Force            0.000315     0.000450     YES
 RMS     Force            0.000077     0.000300     YES
 Maximum Displacement     0.001636     0.001800     YES
 RMS     Displacement     0.000549     0.001200     YES
 Predicted change in Energy=-2.113959D-08
 Optimization completed.
    -- Stationary point found.
                       ----------------------------
                       !   Optimized Parameters   !
                       ! (Angstroms and Degrees)  !
 ----------------------                            ----------------------
 !      Name          Value   Derivative information (Atomic Units)     !
 ------------------------------------------------------------------------
 !       B1          2.3874   -DE/DX =    0.0                           !
 !       B2          2.1919   -DE/DX =    0.0                           !
 !       B3          2.1951   -DE/DX =    0.0                           !
 !       B4          0.9698   -DE/DX =    0.0                           !
 !       B5          0.9682   -DE/DX =    0.0                           !
 !       B6          1.0866   -DE/DX =    0.0                           !
 !       B7          2.4793   -DE/DX =    0.0                           !
 !       B8          2.1118   -DE/DX =    0.0                           !
 !       B9          2.1519   -DE/DX =    0.0                           !
 !       B10         2.0877   -DE/DX =    0.0                           !
 !       B11         1.4697   -DE/DX =    0.0                           !
 !       B12         1.4724   -DE/DX =    0.0                           !
 !       B13         1.4644   -DE/DX =    0.0                           !
 !       A1         83.7796   -DE/DX =    0.0                           !
 !       A2         91.8885   -DE/DX =    0.0                           !
 !       A3        118.9354   -DE/DX =    0.0                           !
 !       A4        128.629    -DE/DX =    0.0                           !
 !       A5         84.0585   -DE/DX =    0.0                           !
 !       A6        138.4192   -DE/DX =    0.0001                        !
 !       A7        120.5797   -DE/DX =   -0.0001                        !
 !       A8         97.1963   -DE/DX =   -0.0001                        !
 !       A9         71.499    -DE/DX =    0.0                           !
 !       A10        97.0415   -DE/DX =   -0.0001                        !
 !       A11       123.7277   -DE/DX =    0.0001                        !
 !       A12        81.6146   -DE/DX =    0.0001                        !
 !       D1         48.386    -DE/DX =    0.0                           !
 !       D2        -63.1032   -DE/DX =    0.0                           !
 !       D3         83.0899   -DE/DX =    0.0                           !
 !       D4        -58.9007   -DE/DX =    0.0                           !
 !       D5         14.7195   -DE/DX =    0.0001                        !
 !       D6       -158.2329   -DE/DX =    0.0                           !
 !       D7       -205.1249   -DE/DX =   -0.0001                        !
 !       D8       -161.5059   -DE/DX =    0.0                           !
 !       D9         57.4071   -DE/DX =    0.0001                        !
 !       D10      -103.6322   -DE/DX =   -0.0003                        !
 !       D11        84.0216   -DE/DX =    0.0001                        !
 ------------------------------------------------------------------------
 GradGradGradGradGradGradGradGradGradGradGradGradGradGradGradGradGradGrad

 1\1\GINC-C53N02\Freq\RB3LYP\6-31++G(d,p)\C3H9O2(1+)\ROOT\26-Apr-2018\1
 \\#N Geom=AllCheck Guess=TCheck SCRF=Check GenChk RB3LYP/6-31++G(d,p) 
 Freq\\H3O-BACK-MIDM\\1,1\C\O,1,B1\H,1,B2,2,A1\H,1,B3,2,A2,3,D1,0\H,2,B
 4,1,A3,4,D2,0\H,2,B5,1,A4,4,D3,0\H,1,B6,2,A5,6,D4,0\H,1,B7,2,A6,6,D5,0
 \H,1,B8,2,A7,6,D6,0\H,1,B9,2,A8,6,D7,0\H,1,B10,2,A9,6,D8,0\C,1,B11,2,A
 10,6,D9,0\C,1,B12,12,A11,2,D10,0\O,12,B13,1,A12,13,D11,0\\B1=2.3873830
 2\B2=2.19187728\B3=2.19513944\B4=0.96981604\B5=0.96815415\B6=1.0866346
 7\B7=2.47928702\B8=2.11184532\B9=2.15188509\B10=2.08772105\B11=1.46972
 346\B12=1.47237485\B13=1.4643616\A1=83.77955659\A2=91.88846865\A3=118.
 93541103\A4=128.62902805\A5=84.05854271\A6=138.41923031\A7=120.5797399
 3\A8=97.19629875\A9=71.49904246\A10=97.04153214\A11=123.72769189\A12=8
 1.61464916\D1=48.38596725\D2=-63.1032137\D3=83.08990891\D4=-58.9006611
 7\D5=14.71952729\D6=-158.23288832\D7=-205.12493126\D8=-161.50586953\D9
 =57.40707232\D10=-103.63222761\D11=84.02155014\\Version=EM64L-G09RevB.
 01\State=1-A\HF=-269.8897689\RMSD=6.700e-09\RMSF=5.260e-04\ZeroPoint=0
 .1204663\Thermal=0.1284071\Dipole=0.5375604,0.1707541,0.6013989\Dipole
 Deriv=0.901281,0.1281921,-0.2242152,0.2469031,0.2943165,-0.0494863,-0.
 4503443,0.0462529,1.3527697,-0.5645258,0.0361559,-0.0226462,0.0309701,
 -0.5238763,-0.0387775,0.0849745,-0.0748687,-0.8253837,0.0459642,-0.025
 7968,-0.0303882,-0.0524506,0.052841,-0.0172461,-0.0219399,0.010186,0.0
 511385,0.0960473,-0.0293892,-0.0124498,-0.0055057,0.0681871,0.0173127,
 -0.0105989,-0.0057633,0.0808198,0.3376002,-0.0141388,-0.0321774,-0.004
 3664,0.2993265,-0.0450532,-0.0219518,0.0064201,0.25909,0.3121264,-0.02
 41885,0.0269836,-0.0243284,0.3453251,0.0704506,-0.0337551,0.0137717,0.
 2353396,0.0412917,-0.0267911,0.0216874,-0.0267083,0.0305521,0.0019127,
 0.0106591,0.0077116,0.0309631,0.3025517,-0.0216344,-0.0475491,0.069979
 7,0.2795631,-0.157583,-0.0514206,-0.0468288,0.3285612,0.1528861,0.0128
 471,0.0089768,-0.0688988,0.0665013,0.0498012,-0.024867,0.0360375,0.083
 343,0.0612068,0.0543126,0.0010892,0.0114184,0.0394724,0.0005093,-0.005
 3691,0.0000423,0.1095721,0.1696081,0.0159226,0.0308498,-0.0659375,0.08
 35476,-0.0378656,0.0282501,-0.0346159,0.0785436,0.3094427,-0.0205066,-
 0.1226441,-0.1122347,0.250756,0.0212232,0.2011831,-0.11062,0.3698543,-
 0.4997259,-0.1166197,-0.0238989,-0.0205756,0.0018245,-0.0086092,-0.047
 7631,-0.0010713,-0.0916095,-0.6657548,0.0316348,0.426382,0.0217347,-0.
 2883369,0.1934111,0.342943,0.1533456,-1.0630018\Polar=49.7516287,1.962
 8052,39.3022951,-4.2283048,0.0976071,53.2426901\PG=C01 [X(C3H9O2)]\NIm
 ag=1\\0.55927819,-0.01965301,0.66311303,0.02919434,0.06375143,0.121663
 01,-0.00682182,-0.00349336,0.00908993,0.28936989,-0.00183817,-0.009136
 23,0.00075690,0.29173547,0.47275983,0.00638941,-0.00056738,0.00896066,
 0.13884871,-0.07124680,0.40023888,-0.01986179,-0.01780269,-0.00833311,
 0.00115117,0.00039644,-0.00042603,0.22768797,0.01168858,0.00748597,0.0
 0443444,0.00027069,-0.00026382,0.00011511,0.12093389,0.13710439,0.0106
 2348,0.01131712,0.00310513,-0.00040372,-0.00011583,0.00020089,0.088521
 43,0.05637674,0.09607523,-0.00193446,0.03151286,-0.00013515,0.00002687
 ,-0.00046916,-0.00026112,0.00562029,-0.02296400,0.00273235,0.05642290,
 0.00059426,-0.00692232,-0.00014185,-0.00023405,0.00049580,0.00002713,0
 .00265724,-0.00945735,0.00100930,-0.02898914,0.35151582,0.00006830,-0.
 01394328,-0.00040192,-0.00027762,0.00072975,0.00039424,0.00195455,-0.0
 1107230,0.00481338,0.00499534,-0.02835971,0.05694358,0.00128941,0.0013
 6734,0.00227591,-0.06829327,-0.12466875,0.04285897,-0.00004575,-0.0000
 9322,0.00008242,-0.00001194,0.00017865,0.00027562,0.07714667,0.0010500
 8,0.00085062,0.00560001,-0.14902619,-0.34150042,0.16922790,-0.00014605
 ,-0.00002361,0.00004816,0.00015575,-0.00003083,-0.00021956,0.15070561,
 0.35567945,0.00184866,0.00369674,0.00385645,0.07302012,0.21145826,-0.1
 5672807,-0.00008361,0.00000478,0.00008268,0.00031681,-0.00023616,-0.00
 025869,-0.06032967,-0.18710075,0.14500289,-0.00022184,0.00120948,-0.00
 659498,-0.21512611,-0.16274993,-0.18349735,-0.00029331,-0.00008494,0.0
 0038283,-0.00002049,0.00000835,-0.00002416,-0.00863411,-0.00303560,-0.
 01359933,0.22342085,0.00049297,-0.00003508,-0.00460053,-0.13916905,-0.
 12499566,-0.09712503,0.00002810,0.00027811,-0.00004293,-0.00004444,-0.
 00010940,-0.00018124,-0.02639337,-0.01553020,-0.02658300,0.16478964,0.
 14003886,-0.00115202,-0.00077987,0.00513893,-0.21392578,-0.14029402,-0
 .22937504,0.00061858,0.00000271,-0.00030850,0.00009322,-0.00005636,0.0
 0004485,0.01596253,0.01539710,0.01161682,0.19957936,0.12591259,0.21761
 730,-0.05777662,0.01375271,0.00512173,-0.00039210,-0.00059592,0.000486
 22,0.00123939,-0.00020616,-0.00072638,-0.00400895,0.00031149,0.0025217
 8,-0.00007735,0.00006016,0.00021240,0.00011812,0.00012936,-0.00027055,
 0.06007867,0.01837222,-0.35139433,-0.03408294,0.00042372,0.00128941,-0
 .00069069,-0.00004517,0.00097187,-0.00026034,0.00117966,0.00093788,-0.
 00039494,-0.00022080,-0.00009754,-0.00049409,-0.00008104,0.00012465,0.
 00011494,-0.01757512,0.36042997,-0.00496953,-0.02695231,-0.04324735,-0
 .00012675,0.00244311,-0.00439239,0.00047491,-0.00026078,-0.00004498,-0
 .00116960,0.00052038,0.00063348,-0.00026254,-0.00045629,-0.00093848,0.
 00003532,0.00079948,-0.00086061,-0.00314956,0.03539244,0.03709922,-0.0
 0168124,-0.00770805,-0.00285429,0.00025478,0.00017254,-0.00021319,0.00
 138442,0.00048425,-0.00130502,-0.00026737,0.00101221,-0.00443732,-0.00
 009707,0.00000059,0.00000050,0.00000986,0.00004244,0.00008799,0.000048
 63,0.00093999,-0.00023415,0.13890357,-0.00562722,0.00521113,0.00673495
 ,-0.00011937,-0.00026025,-0.00153039,0.00002148,0.00267440,-0.00162748
 ,0.00001547,0.00048539,0.00272033,-0.00004241,-0.00022394,-0.00005022,
 0.00025749,0.00026955,-0.00015012,0.00046972,0.00006470,-0.00000845,0.
 20237496,0.34470790,-0.00198899,0.00677846,-0.00480643,-0.00023951,-0.
 00055188,-0.00010090,-0.00141186,0.00013774,0.00243386,0.00070617,-0.0
 0069355,-0.00398880,0.00002484,0.00003986,0.00005358,0.00020921,0.0000
 1134,-0.00021742,0.00086451,-0.00079437,0.00070454,-0.05826891,-0.1150
 3497,0.08213592,-0.02377071,0.00938911,-0.02195315,0.00029495,0.000218
 12,0.00103565,-0.00092077,0.00020004,0.00064261,0.00027271,-0.00011140
 ,-0.00001890,-0.00011274,-0.00004285,-0.00009666,0.00004066,-0.0000388
 4,0.00020288,0.00065544,-0.00039547,0.00146274,-0.00002401,0.00014791,
 0.00017312,0.11257948,-0.00438893,0.00823484,-0.01624207,-0.00071842,-
 0.00037487,-0.00110852,-0.00024145,0.00030722,-0.00010392,-0.00033937,
 0.00005731,0.00004788,-0.00020031,-0.00028648,-0.00029953,0.00012528,0
 .00025337,-0.00040184,0.00054068,0.00048463,0.00083366,-0.00034829,0.0
 0055546,0.00001872,-0.04413051,0.07744075,0.00137781,0.00006177,-0.002
 87139,-0.00069111,-0.00065739,-0.00025729,0.00014868,0.00004530,0.0000
 3856,-0.00002037,-0.00000626,0.00001206,0.00014407,0.00004105,0.000224
 78,0.00000713,0.00017031,-0.00014781,-0.00045653,-0.00028084,0.0010802
 9,0.00029163,-0.00018675,0.00000298,0.11662041,-0.07919788,0.23485627,
 0.00410287,-0.03445476,-0.00320094,0.00013751,0.00030169,0.00019510,0.
 00026877,0.00024042,-0.00027964,-0.00045906,0.00066204,-0.00007832,0.0
 0005392,0.00002821,-0.00014388,0.00001295,-0.00006612,0.00004302,-0.00
 480914,-0.00228747,-0.00069594,0.00009742,0.00008270,-0.00002516,-0.00
 249351,0.01437520,0.00334543,0.06297979,0.00093349,-0.01569314,-0.0014
 1360,0.00007139,0.00029511,0.00009275,0.00022538,0.00028420,-0.0002798
 8,-0.00081611,0.00041662,0.00031584,-0.00003847,-0.00011400,-0.0002783
 3,-0.00002851,-0.00001415,-0.00000623,-0.00166264,0.00065084,-0.000218
 17,0.00009162,0.00004954,0.00010251,0.00110897,-0.00689010,-0.00145567
 ,-0.04626386,0.34184521,0.00163828,-0.00445406,-0.00163952,-0.00016215
 ,0.00029768,-0.00004938,0.00004542,0.00001996,-0.00002497,-0.00015920,
 0.00007153,0.00025199,-0.00006193,-0.00044494,-0.00044095,-0.00003819,
 0.00008969,-0.00007649,-0.00088050,-0.00048863,0.00312944,-0.00010426,
 -0.00012903,-0.00020188,-0.00298358,0.02513265,0.00359215,-0.00229882,
 0.02285569,0.04706477,-0.02211649,0.00460771,0.02398027,0.00088473,0.0
 0106915,0.00069993,-0.00066109,0.00010246,0.00055463,0.00019425,-0.000
 14174,-0.00014913,-0.00037964,0.00005486,-0.00099629,0.00015726,-0.000
 31473,0.00027397,0.00091676,-0.00013980,-0.00131374,-0.00013613,0.0000
 2370,-0.00026873,0.00995921,-0.00206953,-0.01227946,-0.00249008,0.0003
 5176,0.00203959,0.15175406,-0.00176404,0.00395740,0.01430614,-0.000136
 08,-0.00048475,-0.00092321,-0.00019819,0.00029247,-0.00001393,-0.00012
 093,0.00015547,-0.00023365,0.00017738,0.00037273,0.00013140,0.00001979
 ,0.00008743,-0.00020557,0.00062660,0.00059205,-0.00103198,-0.00045496,
 0.00072062,0.00013216,-0.00552587,0.00120713,0.00779499,0.01854760,-0.
 00210060,-0.02345580,-0.03223319,0.05550073,-0.00162610,0.00190365,0.0
 0246114,-0.00100134,-0.00089953,-0.00166254,-0.00034310,0.00001247,0.0
 0024402,-0.00002422,-0.00000095,-0.00002008,-0.00100377,0.00038757,-0.
 00064882,0.00003134,0.00009015,-0.00068411,0.00038074,0.00001374,0.000
 83828,-0.00000863,-0.00006474,-0.00001565,0.01635757,-0.00427586,-0.02
 085266,-0.00140354,0.00047967,-0.00022470,-0.13786580,0.04496098,0.218
 00001,-0.26997999,0.07663208,0.01826143,-0.00043201,-0.00060387,-0.005
 00981,-0.21886367,-0.12017756,-0.07322464,-0.05927871,0.02477793,-0.00
 182646,-0.00020287,-0.00086858,-0.00029340,0.00174097,0.00022755,-0.00
 096105,-0.00253512,-0.00128731,0.00545616,0.00513231,-0.00199763,0.018
 95926,-0.00169116,0.00093933,0.00011070,0.00245008,0.00163103,-0.00047
 161,-0.00406471,-0.00023344,-0.00164289,0.61974785,0.08285358,-0.12812
 674,-0.02874431,-0.00050946,-0.00123774,0.00364475,-0.11313100,-0.1419
 4211,-0.05228611,0.02088215,-0.33925724,0.01273906,-0.00050003,0.00115
 889,0.00109502,-0.00029513,-0.00021307,0.00012557,0.03079796,-0.008661
 35,0.00465868,0.01587844,-0.00746552,0.02780739,-0.00345374,-0.0023390
 4,0.00023711,-0.00152479,0.00124357,0.00031429,-0.00088265,-0.00090512
 ,0.00030966,0.02024125,0.68579310,-0.01565793,-0.02073395,0.01629387,-
 0.00151568,0.00078357,-0.00645844,-0.08123832,-0.05821017,-0.08441015,
 -0.00440318,0.02414041,-0.04548498,0.00066022,-0.00092080,-0.00143708,
 0.00160553,-0.00015226,-0.00178767,0.00216821,0.00140182,0.00094054,-0
 .00414848,-0.01037494,-0.01535382,-0.00264018,0.00059383,-0.00049658,0
 .00064078,0.00000696,-0.00027151,-0.00158779,0.00119747,-0.00130490,0.
 09323000,0.01405213,0.32389227,-0.17527447,-0.06653694,-0.02285667,-0.
 00284149,-0.00235991,-0.00600811,-0.00136218,0.00089697,0.00165643,0.0
 0156211,-0.00100350,-0.00120879,-0.00054115,-0.00019745,-0.00052147,0.
 00048464,0.00087257,-0.00158904,0.00676502,0.00381852,-0.00062619,-0.0
 0189056,0.00227318,0.00043340,-0.09734609,0.03787305,-0.11019010,-0.05
 949233,0.04461262,0.00293520,-0.13551743,0.02547513,0.12827154,-0.0165
 1478,-0.01456806,0.00106084,0.49798299,-0.08130360,-0.15215031,-0.0180
 5714,0.00064561,0.00083286,0.00012591,0.00336092,-0.00118040,-0.001632
 09,0.00083690,0.00121225,0.00077898,-0.00043546,0.00024095,-0.00037034
 ,-0.00002845,-0.00002882,0.00033089,-0.02653271,-0.01015694,-0.0032533
 0,0.00054088,-0.00065741,-0.00032835,0.04310833,-0.07864644,0.07300078
 ,0.05001192,-0.32008839,-0.02021997,0.03052779,-0.05874415,-0.04309763
 ,0.00961703,0.01290422,0.00285557,-0.02962740,0.60536262,-0.03332536,-
 0.01075199,-0.07669203,-0.00381301,-0.00327021,-0.00338230,-0.00023391
 ,0.00010764,-0.00014825,0.00054466,0.00010033,0.00006074,-0.00014928,0
 .00023335,0.00044377,0.00053593,0.00055170,-0.00075777,-0.00282509,-0.
 00091969,0.00467104,0.00178740,-0.00039661,0.00074617,-0.10988231,0.07
 194945,-0.21353847,0.00358756,-0.02055577,-0.04970284,0.13031166,-0.04
 364274,-0.19540216,0.00687196,-0.00849832,0.00477187,-0.00147504,0.010
 34205,0.51843127,0.01476898,0.01117752,-0.02199532,0.00178690,-0.00060
 771,0.00490161,0.00465655,0.00870858,-0.02925678,0.00188183,0.00027766
 ,-0.00179488,-0.00009411,0.00126145,0.00066582,-0.00168944,-0.00055607
 ,0.00103689,-0.00022275,-0.00270193,0.00511888,-0.14173462,-0.19787997
 ,0.04083264,0.00255654,-0.00141673,0.00159171,-0.00035919,-0.00021669,
 0.00050174,0.00149930,-0.00417981,-0.00012180,-0.05550818,-0.03578851,
 0.01182599,-0.01601429,-0.00072177,0.00806482,0.18847247,-0.00141021,-
 0.02539483,0.00769854,0.00025910,0.00258074,-0.00004153,0.00394110,0.0
 0346866,-0.01238880,-0.00083964,0.00050060,0.03707284,0.00016384,-0.00
 049560,-0.00097378,-0.00010643,-0.00012558,0.00001022,-0.00011613,0.00
 476418,-0.01246647,-0.21302662,-0.34613158,0.08237493,-0.00047382,-0.0
 0000378,0.00043347,0.00034722,0.00011530,0.00041096,-0.00095580,-0.000
 65140,0.00018083,-0.00889779,-0.07095186,0.04536037,-0.00152878,0.0010
 9996,0.00475081,0.22264396,0.43122519,0.00757966,-0.00932633,-0.031820
 54,0.00119790,0.00056637,-0.00738833,0.00030636,0.00828636,-0.02205691
 ,-0.00321572,0.00362575,-0.01299986,-0.00047739,-0.00183266,-0.0008288
 8,0.00136738,0.00105973,-0.00020249,-0.00344699,0.00148360,0.00038698,
 0.06940672,0.12009842,-0.06139214,0.00107980,0.00305343,-0.00164289,0.
 00031435,0.00035425,-0.00140611,-0.00339912,0.00098374,-0.00072785,-0.
 05945965,0.02454506,-0.18889343,0.01011801,-0.00047535,0.01049897,-0.0
 2137130,-0.15242239,0.31847349\\-0.00082484,0.00295471,-0.00056457,-0.
 00008100,0.00086653,-0.00000976,-0.00000114,0.00105538,0.00000223,-0.0
 0000233,0.00000065,0.00000045,0.00000614,0.00000586,0.00000698,-0.0000
 0644,-0.00000650,0.00000618,-0.00000127,-0.00000014,0.00000323,0.00003
 301,0.00004506,-0.00001088,-0.00001784,0.00001053,-0.00004674,-0.00000
 477,0.00003601,-0.00000886,-0.00000365,0.00000443,0.00000443,0.0000082
 8,0.00001050,-0.00000556,0.00001680,-0.00005067,0.00006137,-0.00003505
 ,-0.00004651,0.00002026\\\@


 JUST WHEN YOU THINK YOU'VE GOT THE WORLD ON A STRING,
 YOU FIND OUT IT'S YOUR LEASH.
 Job cpu time:  0 days  0 hours  9 minutes 17.3 seconds.
 File lengths (MBytes):  RWF=   1312 Int=      0 D2E=      0 Chk=     32 Scr=     32
 Normal termination of Gaussian 09 at Thu Apr 26 17:38:21 2018.
