 Entering Gaussian System, Link 0=g09
 Input=H3O-term-field-3.gjf
 Output=H3O-term-field-3.log
 Initial command:
 /share/home/zxchen/g09/l1.exe /scratch/zxchen/Gau-24131.inp -scrdir=/scratch/zxchen/
 Entering Link 1 = /share/home/zxchen/g09/l1.exe PID=     24132.
  
 Copyright (c) 1988,1990,1992,1993,1995,1998,2003,2009,2010,
            Gaussian, Inc.  All Rights Reserved.
  
 This is part of the Gaussian(R) 09 program.  It is based on
 the Gaussian(R) 03 system (copyright 2003, Gaussian, Inc.),
 the Gaussian(R) 98 system (copyright 1998, Gaussian, Inc.),
 the Gaussian(R) 94 system (copyright 1995, Gaussian, Inc.),
 the Gaussian 92(TM) system (copyright 1992, Gaussian, Inc.),
 the Gaussian 90(TM) system (copyright 1990, Gaussian, Inc.),
 the Gaussian 88(TM) system (copyright 1988, Gaussian, Inc.),
 the Gaussian 86(TM) system (copyright 1986, Carnegie Mellon
 University), and the Gaussian 82(TM) system (copyright 1983,
 Carnegie Mellon University). Gaussian is a federally registered
 trademark of Gaussian, Inc.
  
 This software contains proprietary and confidential information,
 including trade secrets, belonging to Gaussian, Inc.
  
 This software is provided under written license and may be
 used, copied, transmitted, or stored only in accord with that
 written license.
  
 The following legend is applicable only to US Government
 contracts under FAR:
  
                    RESTRICTED RIGHTS LEGEND
  
 Use, reproduction and disclosure by the US Government is
 subject to restrictions as set forth in subparagraphs (a)
 and (c) of the Commercial Computer Software - Restricted
 Rights clause in FAR 52.227-19.
  
 Gaussian, Inc.
 340 Quinnipiac St., Bldg. 40, Wallingford CT 06492
  
  
 ---------------------------------------------------------------
 Warning -- This program may not be used in any manner that
 competes with the business of Gaussian, Inc. or will provide
 assistance to any competitor of Gaussian, Inc.  The licensee
 of this program is prohibited from giving any competitor of
 Gaussian, Inc. access to this program.  By using this program,
 the user acknowledges that Gaussian, Inc. is engaged in the
 business of creating and licensing software in the field of
 computational chemistry and represents and warrants to the
 licensee that it is not a competitor of Gaussian, Inc. and that
 it will not use this program in any manner prohibited above.
 ---------------------------------------------------------------
  

 Cite this work as:
 Gaussian 09, Revision B.01,
 M. J. Frisch, G. W. Trucks, H. B. Schlegel, G. E. Scuseria, 
 M. A. Robb, J. R. Cheeseman, G. Scalmani, V. Barone, B. Mennucci, 
 G. A. Petersson, H. Nakatsuji, M. Caricato, X. Li, H. P. Hratchian, 
 A. F. Izmaylov, J. Bloino, G. Zheng, J. L. Sonnenberg, M. Hada, 
 M. Ehara, K. Toyota, R. Fukuda, J. Hasegawa, M. Ishida, T. Nakajima, 
 Y. Honda, O. Kitao, H. Nakai, T. Vreven, J. A. Montgomery, Jr., 
 J. E. Peralta, F. Ogliaro, M. Bearpark, J. J. Heyd, E. Brothers, 
 K. N. Kudin, V. N. Staroverov, T. Keith, R. Kobayashi, J. Normand, 
 K. Raghavachari, A. Rendell, J. C. Burant, S. S. Iyengar, J. Tomasi, 
 M. Cossi, N. Rega, J. M. Millam, M. Klene, J. E. Knox, J. B. Cross, 
 V. Bakken, C. Adamo, J. Jaramillo, R. Gomperts, R. E. Stratmann, 
 O. Yazyev, A. J. Austin, R. Cammi, C. Pomelli, J. W. Ochterski, 
 R. L. Martin, K. Morokuma, V. G. Zakrzewski, G. A. Voth, 
 P. Salvador, J. J. Dannenberg, S. Dapprich, A. D. Daniels, 
 O. Farkas, J. B. Foresman, J. V. Ortiz, J. Cioslowski, 
 and D. J. Fox, Gaussian, Inc., Wallingford CT, 2010.
 
 ******************************************
 Gaussian 09:  EM64L-G09RevB.01 12-Aug-2010
                27-Apr-2018 
 ******************************************
 %chk=H3O-term-field-3.chk
 %nprocshared=24
 Will use up to   24 processors via shared memory.
 ----------------------------------------------------------------------
 # opt=(calcfc,tight,ts,noeigen,z-matrix,maxcycle=300) freq b3lyp/6-31+
 +g(d,p) field=z-50
 ----------------------------------------------------------------------
 1/5=1,6=300,7=10,10=4,11=1,14=-1,18=40,26=3,38=1/1,3;
 2/12=2,17=6,18=5,29=3,40=1/2;
 3/5=1,6=6,7=1111,11=2,14=3,15=-50,16=1,25=1,30=1,71=2,74=-5/1,2,3;
 4//1;
 5/5=2,38=5/2;
 8/6=4,10=90,11=11/1;
 11/6=1,8=1,9=11,15=111,16=1/1,2,10;
 10/6=1,7=6,13=1/2;
 6/7=2,8=2,9=2,10=2,28=1/1;
 7/10=1,18=20,25=1/1,2,3,16;
 1/5=1,6=300,7=10,10=4,11=1,14=-1,18=40/3(2);
 2/29=3/2;
 99//99;
 2/29=3/2;
 3/5=1,6=6,7=1111,11=2,14=3,15=-50,16=1,25=1,30=1,71=1,74=-5/1,2,3;
 4/5=5,16=3/1;
 5/5=2,38=5/2;
 7//1,2,3,16;
 1/5=1,6=300,7=10,11=1,14=-1,18=40/3(-5);
 2/29=3/2;
 6/7=2,8=2,9=2,10=2,19=2,28=1/1;
 99/9=1/99;
 -------------------
 Title Card Required
 -------------------
 Symbolic Z-matrix:
 Charge =  1 Multiplicity = 1
 C
 O                    1    B1
 H                    1    B2       2    A1
 H                    1    B3       2    A2       3    D1       0
 H                    1    B4       2    A3       3    D2       0
 H                    1    B5       2    A4       3    D3       0
 H                    1    B6       2    A5       3    D4       0
 H                    2    B7       1    A6       7    D5       0
 H                    2    B8       1    A7       7    D6       0
 H                    1    B9       2    A8       9    D7       0
 C                    1    B10      2    A9       9    D8       0
 C                    1    B11      2    A10      11   D9       0
 O                    12   B12      1    A11      2    D10      0
 H                    11   B13      1    A12      12   D11      0
       Variables:
  B1                    2.10513                  
  B2                    3.00273                  
  B3                    3.46552                  
  B4                    2.1741                   
  B5                    2.40199                  
  B6                    1.08308                  
  B7                    0.97204                  
  B8                    0.96955                  
  B9                    1.08269                  
  B10                   2.58271                  
  B11                   1.47214                  
  B12                   1.48333                  
  B13                   1.09344                  
  A1                   72.03216                  
  A2                  102.04968                  
  A3                   95.26548                  
  A4                  151.09995                  
  A5                   90.5197                   
  A6                  115.33608                  
  A7                  120.36939                  
  A8                   90.90402                  
  A9                   92.82561                  
  A10                 104.22708                  
  A11                  78.19668                  
  A12                  88.18356                  
  D1                    6.50705                  
  D2                   52.37721                  
  D3                   74.00278                  
  D4                  147.47142                  
  D5                   70.53817                  
  D6                  -61.08698                  
  D7                   58.16149                  
  D8                  149.72486                  
  D9                   28.2048                   
  D10                -178.78509                  
  D11                 141.97268                  
 

 GradGradGradGradGradGradGradGradGradGradGradGradGradGradGradGradGradGrad
 Berny optimization.
 Initialization pass.
                       ----------------------------
                       !    Initial Parameters    !
                       ! (Angstroms and Degrees)  !
 ----------------------                            ----------------------
 !      Name          Value   Derivative information (Atomic Units)     !
 ------------------------------------------------------------------------
 !       B1          2.1051   calculate D2E/DX2 analytically            !
 !       B2          3.0027   calculate D2E/DX2 analytically            !
 !       B3          3.4655   calculate D2E/DX2 analytically            !
 !       B4          2.1741   calculate D2E/DX2 analytically            !
 !       B5          2.402    calculate D2E/DX2 analytically            !
 !       B6          1.0831   calculate D2E/DX2 analytically            !
 !       B7          0.972    calculate D2E/DX2 analytically            !
 !       B8          0.9695   calculate D2E/DX2 analytically            !
 !       B9          1.0827   calculate D2E/DX2 analytically            !
 !       B10         2.5827   calculate D2E/DX2 analytically            !
 !       B11         1.4721   calculate D2E/DX2 analytically            !
 !       B12         1.4833   calculate D2E/DX2 analytically            !
 !       B13         1.0934   calculate D2E/DX2 analytically            !
 !       A1         72.0322   calculate D2E/DX2 analytically            !
 !       A2        102.0497   calculate D2E/DX2 analytically            !
 !       A3         95.2655   calculate D2E/DX2 analytically            !
 !       A4        151.0999   calculate D2E/DX2 analytically            !
 !       A5         90.5197   calculate D2E/DX2 analytically            !
 !       A6        115.3361   calculate D2E/DX2 analytically            !
 !       A7        120.3694   calculate D2E/DX2 analytically            !
 !       A8         90.904    calculate D2E/DX2 analytically            !
 !       A9         92.8256   calculate D2E/DX2 analytically            !
 !       A10       104.2271   calculate D2E/DX2 analytically            !
 !       A11        78.1967   calculate D2E/DX2 analytically            !
 !       A12        88.1836   calculate D2E/DX2 analytically            !
 !       D1          6.507    calculate D2E/DX2 analytically            !
 !       D2         52.3772   calculate D2E/DX2 analytically            !
 !       D3         74.0028   calculate D2E/DX2 analytically            !
 !       D4        147.4714   calculate D2E/DX2 analytically            !
 !       D5         70.5382   calculate D2E/DX2 analytically            !
 !       D6        -61.087    calculate D2E/DX2 analytically            !
 !       D7         58.1615   calculate D2E/DX2 analytically            !
 !       D8        149.7249   calculate D2E/DX2 analytically            !
 !       D9         28.2048   calculate D2E/DX2 analytically            !
 !       D10      -178.7851   calculate D2E/DX2 analytically            !
 !       D11       141.9727   calculate D2E/DX2 analytically            !
 ------------------------------------------------------------------------
 Trust Radius=3.00D-01 FncErr=1.00D-07 GrdErr=1.00D-06
 Number of steps in this run=    100 maximum allowed number of steps=    100.
 Search for a saddle point of order  1.
 GradGradGradGradGradGradGradGradGradGradGradGradGradGradGradGradGradGrad

 ---------------------------------------------------------------------------------------------------
                            Z-MATRIX (ANGSTROMS AND DEGREES)
   CD    Cent   Atom    N1       Length/X        N2       Alpha/Y        N3        Beta/Z          J
 ---------------------------------------------------------------------------------------------------
      1      1  C 
      2      2  O        1   2.105126(     1)
      3      3  H        1   3.002726(     2)      2   72.032(    14)
      4      4  H        1   3.465523(     3)      2  102.050(    15)      3    6.507(    26)      0
      5      5  H        1   2.174099(     4)      2   95.265(    16)      3   52.377(    27)      0
      6      6  H        1   2.401995(     5)      2  151.100(    17)      3   74.003(    28)      0
      7      7  H        1   1.083084(     6)      2   90.520(    18)      3  147.471(    29)      0
      8      8  H        2   0.972037(     7)      1  115.336(    19)      7   70.538(    30)      0
      9      9  H        2   0.969546(     8)      1  120.369(    20)      7  -61.087(    31)      0
     10     10  H        1   1.082691(     9)      2   90.904(    21)      9   58.161(    32)      0
     11     11  C        1   2.582714(    10)      2   92.826(    22)      9  149.725(    33)      0
     12     12  C        1   1.472137(    11)      2  104.227(    23)     11   28.205(    34)      0
     13     13  O       12   1.483334(    12)      1   78.197(    24)      2 -178.785(    35)      0
     14     14  H       11   1.093444(    13)      1   88.184(    25)     12  141.973(    36)      0
 ---------------------------------------------------------------------------------------------------
                         Z-Matrix orientation:                         
 ---------------------------------------------------------------------
 Center     Atomic      Atomic             Coordinates (Angstroms)
 Number     Number       Type             X           Y           Z
 ---------------------------------------------------------------------
      1          6           0        0.000000    0.000000    0.000000
      2          8           0        0.000000    0.000000    2.105126
      3          1           0        2.856283    0.000000    0.926290
      4          1           0        3.367334   -0.384079   -0.723462
      5          1           0        1.321600   -1.714722   -0.199518
      6          1           0        0.319918   -1.115890   -2.102860
      7          1           0       -0.913136   -0.582372   -0.009824
      8          1           0        0.198625   -0.855792    2.521087
      9          1           0       -0.734731    0.399897    2.595303
     10          1           0       -0.061941    1.080783   -0.017082
     11          6           0        2.578416    0.077279   -0.127318
     12          6           0        1.277191   -0.636452   -0.361800
     13          8           0        0.708368   -0.318599   -1.694351
     14          1           0        2.498947    1.135380   -0.391377
 ---------------------------------------------------------------------
                    Distance matrix (angstroms):
                    1          2          3          4          5
     1  C    0.000000
     2  O    2.105126   0.000000
     3  H    3.002726   3.089985   0.000000
     4  H    3.465523   4.414450   1.769286   0.000000
     5  H    2.174099   3.162007   2.561829   2.496027   0.000000
     6  H    2.401995   4.365170   4.105376   3.424183   2.232639
     7  H    1.083084   2.376129   3.927338   4.344079   2.512419
     8  H    2.669778   0.972037   3.215416   4.559641   3.066028
     9  H    2.726782   0.969546   3.980062   5.334393   4.063389
    10  H    1.082691   2.382372   3.251780   3.795354   3.124470
    11  C    2.582714   3.411452   1.092370   1.091160   2.189992
    12  C    1.472137   2.849915   2.134896   2.136162   1.091318
    13  O    1.863898   3.878056   3.403352   2.831433   2.135354
    14  H    2.772544   3.710303   1.775675   1.781329   3.089666
                    6          7          8          9         10
     6  H    0.000000
     7  H    2.487140   0.000000
     8  H    4.632845   2.777820   0.000000
     9  H    5.048032   2.789868   1.566338   0.000000
    10  H    3.053139   1.868334   3.203204   2.782230   0.000000
    11  C    3.229123   3.555261   3.680771   4.300428   2.826774
    12  C    2.043899   2.219086   3.085847   3.723749   2.204767
    13  O    0.976446   2.352973   4.279992   4.582564   2.316220
    14  H    3.570092   3.839084   4.211732   4.462943   2.588672
                   11         12         13         14
    11  C    0.000000
    12  C    1.502525   0.000000
    13  O    2.471718   1.483334   0.000000
    14  H    1.093444   2.152429   2.649145   0.000000
 Stoichiometry    C3H9O2(1+)
 Framework group  C1[X(C3H9O2)]
 Deg. of freedom    36
 Full point group                 C1      NOp   1
 Largest Abelian subgroup         C1      NOp   1
 Largest concise Abelian subgroup C1      NOp   1
                         Standard orientation:                         
 ---------------------------------------------------------------------
 Center     Atomic      Atomic             Coordinates (Angstroms)
 Number     Number       Type             X           Y           Z
 ---------------------------------------------------------------------
      1          6           0       -0.349652   -0.786338   -0.254968
      2          8           0       -2.219946    0.140961    0.016462
      3          1           0        0.116887    2.161897    0.071555
      4          1           0        1.845100    1.842589    0.275746
      5          1           0        0.566123    0.090860    1.510984
      6          1           0        1.755379   -1.564959    0.600703
      7          1           0       -0.704988   -1.674168    0.253526
      8          1           0       -2.429032    0.395894    0.930873
      9          1           0       -3.020228   -0.247507   -0.369103
     10          1           0       -0.451855   -0.716418   -1.330554
     11          6           0        0.921123    1.460145   -0.160871
     12          6           0        0.601045    0.112103    0.420432
     13          8           0        1.501848   -0.941780   -0.106981
     14          1           0        1.032309    1.402903   -1.247140
 ---------------------------------------------------------------------
 Rotational constants (GHZ):      6.8112549      3.0563109      2.3134661
 Standard basis: 6-31++G(d,p) (6D, 7F)
 The following finite field(s) will be applied:
 An electric field of              0.0000  0.0000 -0.0050
 There are   149 symmetry adapted basis functions of A   symmetry.
 Integral buffers will be    131072 words long.
 Raffenetti 2 integral format.
 Two-electron integral symmetry is turned on.
   149 basis functions,   232 primitive gaussians,   149 cartesian basis functions
    21 alpha electrons       21 beta electrons
       nuclear repulsion energy       194.4433805556 Hartrees.
 NAtoms=   14 NActive=   14 NUniq=   14 SFac= 1.00D+00 NAtFMM=   50 NAOKFM=F Big=F
 One-electron integrals computed using PRISM.
 PrsmSu:  requested number of processors reduced to:  10 ShMem   1 Linda.
 NBasis=   149 RedAO= T  NBF=   149
 NBsUse=   149 1.00D-06 NBFU=   149
 The nuclear repulsion energy is now       194.4433805556 hartrees.
 Harris functional with IExCor=  402 diagonalized for initial guess.
 ExpMin= 3.60D-02 ExpMax= 5.48D+03 ExpMxC= 8.25D+02 IAcc=3 IRadAn=         0 AccDes= 0.00D+00
 HarFok:  IExCor=  402 AccDes= 0.00D+00 IRadAn=         0 IDoV= 1
 ScaDFX=  1.000000  1.000000  1.000000  1.000000
 FoFCou: FMM=F IPFlag=           0 FMFlag=      100000 FMFlg1=           0
         NFxFlg=           0 DoJE=T BraDBF=F KetDBF=T FulRan=T
         Omega=  0.000000  0.000000  1.000000  0.000000  0.000000 ICntrl=     500 IOpCl=  0
         NMat0=    1 NMatS0=    1 NMatT0=    0 NMatD0=    1 NMtDS0=    0 NMtDT0=    0
         I1Cent=           4 NGrid=           0.
 Petite list used in FoFCou.
 Initial guess orbital symmetries:
       Occupied  (A) (A) (A) (A) (A) (A) (A) (A) (A) (A) (A) (A)
                 (A) (A) (A) (A) (A) (A) (A) (A) (A)
       Virtual   (A) (A) (A) (A) (A) (A) (A) (A) (A) (A) (A) (A)
                 (A) (A) (A) (A) (A) (A) (A) (A) (A) (A) (A) (A)
                 (A) (A) (A) (A) (A) (A) (A) (A) (A) (A) (A) (A)
                 (A) (A) (A) (A) (A) (A) (A) (A) (A) (A) (A) (A)
                 (A) (A) (A) (A) (A) (A) (A) (A) (A) (A) (A) (A)
                 (A) (A) (A) (A) (A) (A) (A) (A) (A) (A) (A) (A)
                 (A) (A) (A) (A) (A) (A) (A) (A) (A) (A) (A) (A)
                 (A) (A) (A) (A) (A) (A) (A) (A) (A) (A) (A) (A)
                 (A) (A) (A) (A) (A) (A) (A) (A) (A) (A) (A) (A)
                 (A) (A) (A) (A) (A) (A) (A) (A) (A) (A) (A) (A)
                 (A) (A) (A) (A) (A) (A) (A) (A)
 The electronic state of the initial guess is 1-A.
 Requested convergence on RMS density matrix=1.00D-08 within 128 cycles.
 Requested convergence on MAX density matrix=1.00D-06.
 Requested convergence on             energy=1.00D-06.
 No special actions if energy rises.
 SCF Done:  E(RB3LYP) =  -269.891126334     A.U. after   12 cycles
             Convg  =    0.3179D-08             -V/T =  2.0095
 Range of M.O.s used for correlation:     1   149
 NBasis=   149 NAE=    21 NBE=    21 NFC=     0 NFV=     0
 NROrb=    149 NOA=    21 NOB=    21 NVA=   128 NVB=   128

 **** Warning!!: The largest alpha MO coefficient is  0.49528249D+02

 PrsmSu:  requested number of processors reduced to:  10 ShMem   1 Linda.
 PrsmSu:  requested number of processors reduced to:  17 ShMem   1 Linda.
 Symmetrizing basis deriv contribution to polar:
 IMax=3 JMax=2 DiffMx= 0.00D+00
 G2DrvN: will do     3 centers at a time, making    5 passes doing MaxLOS=2.
 Estimated number of processors is:   15
 Calling FoFCou, ICntrl=  3107 FMM=F I1Cent=   0 AccDes= 0.00D+00.
 CoulSu:  requested number of processors reduced to:  15 ShMem   1 Linda.
 Calling FoFCou, ICntrl=  3107 FMM=F I1Cent=   0 AccDes= 0.00D+00.
 CoulSu:  requested number of processors reduced to:  15 ShMem   1 Linda.
 Calling FoFCou, ICntrl=  3107 FMM=F I1Cent=   0 AccDes= 0.00D+00.
 CoulSu:  requested number of processors reduced to:  15 ShMem   1 Linda.
 Calling FoFCou, ICntrl=  3107 FMM=F I1Cent=   0 AccDes= 0.00D+00.
 CoulSu:  requested number of processors reduced to:  15 ShMem   1 Linda.
 Calling FoFCou, ICntrl=  3107 FMM=F I1Cent=   0 AccDes= 0.00D+00.
 CoulSu:  requested number of processors reduced to:  15 ShMem   1 Linda.
 FoFDir/FoFCou used for L=0 through L=2.
 End of G2Drv Frequency-dependent properties file   721 does not exist.
 End of G2Drv Frequency-dependent properties file   722 does not exist.
          IDoAtm=11111111111111
          Differentiating once with respect to nuclear coordinates.
 PrRfSu:  requested number of processors reduced to:  16 ShMem   1 Linda.
 CalDSu:  requested number of processors reduced to:  21 ShMem   1 Linda.
 PrRfSu:  requested number of processors reduced to:  16 ShMem   1 Linda.
 CalDSu:  requested number of processors reduced to:  21 ShMem   1 Linda.
          There are    45 degrees of freedom in the 1st order CPHF.  IDoFFX=5.
     39 vectors produced by pass  0 Test12= 5.97D-11 2.22D-07 XBig12= 1.08D-01 1.56D-01.
 AX will form    20 AO Fock derivatives at one time.
 PrRfSu:  requested number of processors reduced to:  16 ShMem   1 Linda.
 CalDSu:  requested number of processors reduced to:  22 ShMem   1 Linda.
 PrRfSu:  requested number of processors reduced to:  16 ShMem   1 Linda.
 CalDSu:  requested number of processors reduced to:  22 ShMem   1 Linda.
     39 vectors produced by pass  1 Test12= 5.97D-11 2.22D-07 XBig12= 1.51D-02 3.61D-02.
 PrRfSu:  requested number of processors reduced to:  16 ShMem   1 Linda.
 CalDSu:  requested number of processors reduced to:  22 ShMem   1 Linda.
 PrRfSu:  requested number of processors reduced to:  16 ShMem   1 Linda.
 CalDSu:  requested number of processors reduced to:  22 ShMem   1 Linda.
     39 vectors produced by pass  2 Test12= 5.97D-11 2.22D-07 XBig12= 1.23D-04 1.99D-03.
 PrRfSu:  requested number of processors reduced to:  16 ShMem   1 Linda.
 CalDSu:  requested number of processors reduced to:  22 ShMem   1 Linda.
 PrRfSu:  requested number of processors reduced to:  16 ShMem   1 Linda.
 CalDSu:  requested number of processors reduced to:  22 ShMem   1 Linda.
     39 vectors produced by pass  3 Test12= 5.97D-11 2.22D-07 XBig12= 2.69D-07 8.64D-05.
 PrRfSu:  requested number of processors reduced to:  16 ShMem   1 Linda.
 CalDSu:  requested number of processors reduced to:  22 ShMem   1 Linda.
 PrRfSu:  requested number of processors reduced to:  16 ShMem   1 Linda.
 CalDSu:  requested number of processors reduced to:  22 ShMem   1 Linda.
     10 vectors produced by pass  4 Test12= 5.97D-11 2.22D-07 XBig12= 3.92D-10 3.66D-06.
 PrRfSu:  requested number of processors reduced to:  17 ShMem   1 Linda.
 Inverted reduced A of dimension   166 with in-core refinement.
 End of Minotr Frequency-dependent properties file   721 does not exist.
 End of Minotr Frequency-dependent properties file   722 does not exist.

 **********************************************************************

            Population analysis using the SCF density.

 **********************************************************************

 Orbital symmetries:
       Occupied  (A) (A) (A) (A) (A) (A) (A) (A) (A) (A) (A) (A)
                 (A) (A) (A) (A) (A) (A) (A) (A) (A)
       Virtual   (A) (A) (A) (A) (A) (A) (A) (A) (A) (A) (A) (A)
                 (A) (A) (A) (A) (A) (A) (A) (A) (A) (A) (A) (A)
                 (A) (A) (A) (A) (A) (A) (A) (A) (A) (A) (A) (A)
                 (A) (A) (A) (A) (A) (A) (A) (A) (A) (A) (A) (A)
                 (A) (A) (A) (A) (A) (A) (A) (A) (A) (A) (A) (A)
                 (A) (A) (A) (A) (A) (A) (A) (A) (A) (A) (A) (A)
                 (A) (A) (A) (A) (A) (A) (A) (A) (A) (A) (A) (A)
                 (A) (A) (A) (A) (A) (A) (A) (A) (A) (A) (A) (A)
                 (A) (A) (A) (A) (A) (A) (A) (A) (A) (A) (A) (A)
                 (A) (A) (A) (A) (A) (A) (A) (A) (A) (A) (A) (A)
                 (A) (A) (A) (A) (A) (A) (A) (A)
 The electronic state is 1-A.
 Alpha  occ. eigenvalues --  -19.41345 -19.38854 -10.49013 -10.46236 -10.35496
 Alpha  occ. eigenvalues --   -1.27207  -1.23500  -0.99146  -0.90143  -0.80134
 Alpha  occ. eigenvalues --   -0.76151  -0.75088  -0.67618  -0.65760  -0.62563
 Alpha  occ. eigenvalues --   -0.60527  -0.58658  -0.55532  -0.54856  -0.54240
 Alpha  occ. eigenvalues --   -0.51674
 Alpha virt. eigenvalues --   -0.25078  -0.17331  -0.14928  -0.13357  -0.11948
 Alpha virt. eigenvalues --   -0.11637  -0.09480  -0.08624  -0.08087  -0.07605
 Alpha virt. eigenvalues --   -0.06106  -0.04976  -0.04243  -0.03174  -0.02793
 Alpha virt. eigenvalues --   -0.01338  -0.00994  -0.00225   0.00852   0.01105
 Alpha virt. eigenvalues --    0.01783   0.02732   0.03711   0.04617   0.04864
 Alpha virt. eigenvalues --    0.05659   0.06033   0.06952   0.08008   0.08733
 Alpha virt. eigenvalues --    0.08978   0.11366   0.12097   0.13954   0.15288
 Alpha virt. eigenvalues --    0.16199   0.18429   0.18839   0.21743   0.22541
 Alpha virt. eigenvalues --    0.23031   0.26676   0.44062   0.47409   0.49921
 Alpha virt. eigenvalues --    0.54491   0.57976   0.59797   0.61794   0.65079
 Alpha virt. eigenvalues --    0.70753   0.76949   0.77884   0.78955   0.79702
 Alpha virt. eigenvalues --    0.82002   0.83132   0.87430   0.89601   0.94928
 Alpha virt. eigenvalues --    0.97210   0.98661   1.00067   1.01251   1.04847
 Alpha virt. eigenvalues --    1.05270   1.08000   1.10488   1.14983   1.20069
 Alpha virt. eigenvalues --    1.28788   1.32397   1.35161   1.39984   1.41102
 Alpha virt. eigenvalues --    1.42078   1.46628   1.48972   1.57202   1.62667
 Alpha virt. eigenvalues --    1.64529   1.70016   1.77377   1.80794   1.84305
 Alpha virt. eigenvalues --    1.88597   1.91307   1.92303   1.95992   2.01861
 Alpha virt. eigenvalues --    2.05074   2.06422   2.10484   2.14038   2.18686
 Alpha virt. eigenvalues --    2.22761   2.29806   2.30707   2.31790   2.33541
 Alpha virt. eigenvalues --    2.36595   2.44304   2.44721   2.47037   2.49868
 Alpha virt. eigenvalues --    2.50607   2.54500   2.59043   2.63113   2.67736
 Alpha virt. eigenvalues --    2.70071   2.75689   2.81827   2.84906   3.09271
 Alpha virt. eigenvalues --    3.13225   3.17559   3.24075   3.26614   3.29029
 Alpha virt. eigenvalues --    3.30408   3.35413   3.35855   4.09835   4.15300
 Alpha virt. eigenvalues --    4.19179   4.35446   4.45983
          Condensed to atoms (all electrons):
              1          2          3          4          5          6
     1  C    5.600806   0.007586   0.003473   0.014459   0.009643  -0.046354
     2  O    0.007586   8.140376   0.006425  -0.001094  -0.004620   0.000726
     3  H    0.003473   0.006425   0.488623  -0.013387  -0.008005  -0.001548
     4  H    0.014459  -0.001094  -0.013387   0.461480  -0.009406   0.000912
     5  H    0.009643  -0.004620  -0.008005  -0.009406   0.530312  -0.006720
     6  H   -0.046354   0.000726  -0.001548   0.000912  -0.006720   0.329993
     7  H    0.302112  -0.029148   0.001753  -0.000840  -0.016416  -0.003022
     8  H   -0.007141   0.290277  -0.000737   0.000365  -0.001151   0.000145
     9  H   -0.006004   0.274770  -0.000453   0.000102   0.001279  -0.000252
    10  H    0.394259  -0.002460  -0.003481   0.001685   0.007899   0.002510
    11  C   -0.238327   0.005280   0.403339   0.420531  -0.050089  -0.002127
    12  C    0.112503  -0.062826  -0.045807  -0.061828   0.333238   0.042267
    13  O   -0.092795   0.019385   0.006627  -0.005818  -0.018811   0.244193
    14  H   -0.017857   0.000728  -0.028290  -0.021236   0.009635  -0.000113
              7          8          9         10         11         12
     1  C    0.302112  -0.007141  -0.006004   0.394259  -0.238327   0.112503
     2  O   -0.029148   0.290277   0.274770  -0.002460   0.005280  -0.062826
     3  H    0.001753  -0.000737  -0.000453  -0.003481   0.403339  -0.045807
     4  H   -0.000840   0.000365   0.000102   0.001685   0.420531  -0.061828
     5  H   -0.016416  -0.001151   0.001279   0.007899  -0.050089   0.333238
     6  H   -0.003022   0.000145  -0.000252   0.002510  -0.002127   0.042267
     7  H    0.490017   0.002102   0.000688  -0.039396   0.005750   0.053764
     8  H    0.002102   0.310680  -0.016394   0.000713   0.003332   0.000463
     9  H    0.000688  -0.016394   0.318018  -0.002550  -0.003321   0.013252
    10  H   -0.039396   0.000713  -0.002550   0.462253   0.018006  -0.076418
    11  C    0.005750   0.003332  -0.003321   0.018006   5.708094  -0.241997
    12  C    0.053764   0.000463   0.013252  -0.076418  -0.241997   5.953441
    13  O   -0.012770   0.001022  -0.001083  -0.002271  -0.017661   0.118375
    14  H   -0.000870  -0.000272  -0.000299   0.007876   0.365812  -0.007001
             13         14
     1  C   -0.092795  -0.017857
     2  O    0.019385   0.000728
     3  H    0.006627  -0.028290
     4  H   -0.005818  -0.021236
     5  H   -0.018811   0.009635
     6  H    0.244193  -0.000113
     7  H   -0.012770  -0.000870
     8  H    0.001022  -0.000272
     9  H   -0.001083  -0.000299
    10  H   -0.002271   0.007876
    11  C   -0.017661   0.365812
    12  C    0.118375  -0.007001
    13  O    8.121406   0.004015
    14  H    0.004015   0.518874
 Mulliken atomic charges:
              1
     1  C   -0.036361
     2  O   -0.645405
     3  H    0.191467
     4  H    0.214073
     5  H    0.223213
     6  H    0.439389
     7  H    0.246275
     8  H    0.416595
     9  H    0.422246
    10  H    0.231374
    11  C   -0.376623
    12  C   -0.131427
    13  O   -0.363816
    14  H    0.168999
 Sum of Mulliken atomic charges =   1.00000
 Mulliken charges with hydrogens summed into heavy atoms:
              1
     1  C    0.441288
     2  O    0.193436
    11  C    0.197916
    12  C    0.091787
    13  O    0.075573
 Sum of Mulliken charges with hydrogens summed into heavy atoms =   1.00000
 APT atomic charges:
              1
     1  C   -0.389187
     2  O   -1.379109
     3  H    0.404095
     4  H    0.571602
     5  H    0.459900
     6  H    0.756100
     7  H    0.540639
     8  H    0.641254
     9  H    0.891367
    10  H    0.450590
    11  C   -1.147892
    12  C   -0.438769
    13  O   -0.733226
    14  H    0.372637
 Sum of APT charges=   1.00000
 APT Atomic charges with hydrogens summed into heavy atoms:
              1
     1  C    0.602042
     2  O    0.153511
     3  H    0.000000
     4  H    0.000000
     5  H    0.000000
     6  H    0.000000
     7  H    0.000000
     8  H    0.000000
     9  H    0.000000
    10  H    0.000000
    11  C    0.200442
    12  C    0.021131
    13  O    0.022874
    14  H    0.000000
 Sum of APT charges=   1.00000
 Electronic spatial extent (au):  <R**2>=            537.2672
 Charge=              1.0000 electrons
 Dipole moment (field-independent basis, Debye):
    X=             -2.8121    Y=             -1.9710    Z=              2.6948  Tot=              4.3652
 Quadrupole moment (field-independent basis, Debye-Ang):
   XX=            -12.7349   YY=            -23.0638   ZZ=            -25.2108
   XY=              0.7280   XZ=              1.6661   YZ=             -0.6940
 Traceless Quadrupole moment (field-independent basis, Debye-Ang):
   XX=              7.6016   YY=             -2.7273   ZZ=             -4.8743
   XY=              0.7280   XZ=              1.6661   YZ=             -0.6940
 Octapole moment (field-independent basis, Debye-Ang**2):
  XXX=            -48.3890  YYY=             -9.2722  ZZZ=              3.2740  XYY=              5.4147
  XXY=             -7.9894  XXZ=             10.0055  XZZ=             -5.2912  YZZ=             -2.3023
  YYZ=              5.3316  XYZ=             -7.5578
 Hexadecapole moment (field-independent basis, Debye-Ang**3):
 XXXX=           -204.7991 YYYY=           -176.7371 ZZZZ=            -51.5069 XXXY=             -2.3990
 XXXZ=              7.5749 YYYX=            -11.9730 YYYZ=             -6.0688 ZZZX=             -1.2266
 ZZZY=              0.6079 XXYY=            -78.0600 XXZZ=            -56.1830 YYZZ=            -41.4877
 XXYZ=              1.8096 YYXZ=              5.6793 ZZXY=             -4.5417
 N-N= 1.944433805556D+02 E-N=-1.010543587942D+03  KE= 2.673385343628D+02
  Exact polarizability:   0.000   0.000   0.000   0.000   0.000   0.000
 Approx polarizability:  81.735  -7.301  57.837   0.729   1.404  54.289
 PrsmSu:  requested number of processors reduced to:  10 ShMem   1 Linda.
 PrsmSu:  requested number of processors reduced to:  10 ShMem   1 Linda.
 Calling FoFJK, ICntrl=    100147 FMM=F ISym2X=0 I1Cent= 0 IOpClX= 0 NMat=1 NMatS=1 NMatT=0.
 CoulSu:  requested number of processors reduced to:  10 ShMem   1 Linda.
 CalDSu:  requested number of processors reduced to:  23 ShMem   1 Linda.
 ***** Axes restored to original set *****
 -------------------------------------------------------------------
 Center     Atomic                   Forces (Hartrees/Bohr)
 Number     Number              X              Y              Z
 -------------------------------------------------------------------
      1        6           0.000685190   -0.005691351    0.001378784
      2        8           0.001997379    0.000006328   -0.001947342
      3        1           0.000175946   -0.000685498    0.001284353
      4        1           0.000794019   -0.000307080   -0.000614184
      5        1          -0.000083497    0.000006854   -0.000067095
      6        1           0.000124431    0.001121332   -0.000177101
      7        1          -0.000176505    0.000396612   -0.000143732
      8        1          -0.001832041    0.001540811    0.001185709
      9        1          -0.000122058   -0.001582318    0.000770755
     10        1          -0.000173138    0.000096108    0.000261105
     11        6          -0.000583636    0.000928639   -0.000411146
     12        6          -0.000465005    0.000171330   -0.000494669
     13        8           0.000017736   -0.000868422   -0.000153509
     14        1           0.000003694   -0.000078339   -0.000227241
 -------------------------------------------------------------------
 Cartesian Forces:  Max     0.005691351 RMS     0.001198964
 -----------------------------------------------------------------------------------------------
                       Internal Coordinate Forces (Hartree/Bohr or radian)
  Cent   Atom   N1       Length/X         N2         Alpha/Y        N3         Beta/Z          J
 -----------------------------------------------------------------------------------------------
      1  C 
      2  O        1   0.000009(     1)
      3  H        1   0.000564(     2)      2  -0.006624(    14)
      4  H        1   0.000934(     3)      2   0.002807(    15)      3   0.001378(    26)     0
      5  H        1  -0.000050(     4)      2   0.000296(    16)      3   0.000253(    27)     0
      6  H        1  -0.000349(     5)      2   0.004536(    17)      3  -0.000940(    28)     0
      7  H        1  -0.000063(     6)      2   0.000295(    18)      3  -0.002303(    29)     0
      8  H        2  -0.001224(     7)      1   0.003474(    19)      7  -0.002384(    30)     0
      9  H        2  -0.000170(     8)      1   0.001820(    20)      7   0.005566(    31)     0
     10  H        1   0.000102(     9)      2  -0.000538(    21)      9  -0.000342(    32)     0
     11  C        1  -0.000522(    10)      2   0.004003(    22)      9  -0.002935(    33)     0
     12  C        1   0.000073(    11)      2  -0.000323(    23)     11   0.001619(    34)     0
     13  O       12  -0.000055(    12)      1   0.001195(    24)      2  -0.002113(    35)     0
     14  H       11  -0.000021(    13)      1   0.000025(    25)     12  -0.000494(    36)     0
 -----------------------------------------------------------------------------------------------
 Internal  Forces:  Max     0.006624434 RMS     0.002171503

 GradGradGradGradGradGradGradGradGradGradGradGradGradGradGradGradGradGrad
 Berny optimization.
 Search for a saddle point.
 Step number   1 out of a maximum of  100
 All quantities printed in internal units (Hartrees-Bohrs-Radians)
 Swaping is turned off.
 Second derivative matrix not updated -- analytic derivatives used.
 ITU=  0
     Eigenvalues ---   -0.02001   0.00041   0.00508   0.01001   0.01247
     Eigenvalues ---    0.02287   0.02830   0.03611   0.03776   0.06337
     Eigenvalues ---    0.07043   0.10819   0.13412   0.15351   0.16046
     Eigenvalues ---    0.21090   0.24672   0.30502   0.33446   0.34099
     Eigenvalues ---    0.36000   0.37880   0.38158   0.47576   0.51895
     Eigenvalues ---    0.52792   0.54560   0.59215   0.89483   1.68571
     Eigenvalues ---    3.55899   4.54399   5.61309   7.82954  19.30340
     Eigenvalues ---   30.52209
 Eigenvectors required to have negative eigenvalues:
                          B1        B5        A11       A5        A8
   1                    0.73537  -0.41293  -0.32247  -0.20326  -0.14071
                          A7        D3        A10       D11       B12
   1                    0.13802   0.13485  -0.12942   0.11293   0.11078
 RFO step:  Lambda0=1.604153691D-06 Lambda=-3.36126847D-04.
 Linear search not attempted -- option 19 set.
 Variable       Old X    -DE/DX   Delta X   Delta X   Delta X     New X
                                 (Linear)    (Quad)   (Total)
    B1        3.97811   0.00001   0.00000   0.02239   0.02239   4.00050
    B2        5.67433   0.00056   0.00000   0.01089   0.01089   5.68522
    B3        6.54889   0.00093   0.00000   0.00105   0.00105   6.54994
    B4        4.10845  -0.00005   0.00000  -0.00041  -0.00041   4.10804
    B5        4.53911  -0.00035   0.00000  -0.01376  -0.01376   4.52535
    B6        2.04673  -0.00006   0.00000   0.00017   0.00017   2.04690
    B7        1.83688  -0.00122   0.00000  -0.00100  -0.00100   1.83589
    B8        1.83218  -0.00017   0.00000   0.00103   0.00103   1.83320
    B9        2.04599   0.00010   0.00000  -0.00054  -0.00054   2.04545
   B10        4.88062  -0.00052   0.00000   0.00090   0.00090   4.88152
   B11        2.78194   0.00007   0.00000  -0.00120  -0.00120   2.78073
   B12        2.80310  -0.00005   0.00000   0.00246   0.00246   2.80555
   B13        2.06631  -0.00002   0.00000  -0.00037  -0.00037   2.06594
    A1        1.25720  -0.00662   0.00000   0.00519   0.00519   1.26239
    A2        1.78110   0.00281   0.00000   0.01210   0.01210   1.79320
    A3        1.66270   0.00030   0.00000   0.03742   0.03742   1.70012
    A4        2.63719   0.00454   0.00000   0.04773   0.04773   2.68492
    A5        1.57987   0.00030   0.00000   0.00673   0.00673   1.58660
    A6        2.01299   0.00347   0.00000   0.02458   0.02458   2.03758
    A7        2.10084   0.00182   0.00000  -0.03775  -0.03775   2.06310
    A8        1.58657  -0.00054   0.00000  -0.03676  -0.03676   1.54981
    A9        1.62011   0.00400   0.00000   0.00313   0.00313   1.62325
   A10        1.81911  -0.00032   0.00000   0.02152   0.02152   1.84063
   A11        1.36479   0.00120   0.00000  -0.00897  -0.00897   1.35582
   A12        1.53909   0.00002   0.00000  -0.00351  -0.00351   1.53558
    D1        0.11357   0.00138   0.00000  -0.02919  -0.02919   0.08438
    D2        0.91415   0.00025   0.00000  -0.01949  -0.01949   0.89466
    D3        1.29159  -0.00094   0.00000  -0.02342  -0.02342   1.26818
    D4        2.57386  -0.00230   0.00000  -0.01759  -0.01759   2.55628
    D5        1.23112  -0.00238   0.00000   0.02595   0.02595   1.25707
    D6       -1.06617   0.00557   0.00000   0.08527   0.08527  -0.98090
    D7        1.01511  -0.00034   0.00000   0.08327   0.08327   1.09838
    D8        2.61319  -0.00293   0.00000   0.08247   0.08247   2.69566
    D9        0.49227   0.00162   0.00000  -0.00678  -0.00678   0.48548
   D10       -3.12039  -0.00211   0.00000   0.03812   0.03812  -3.08227
   D11        2.47789  -0.00049   0.00000   0.01280   0.01280   2.49069
         Item               Value     Threshold  Converged?
 Maximum Force            0.006624     0.000015     NO 
 RMS     Force            0.002172     0.000010     NO 
 Maximum Displacement     0.085266     0.000060     NO 
 RMS     Displacement     0.030775     0.000040     NO 
 Predicted change in Energy=-1.729783D-04
 GradGradGradGradGradGradGradGradGradGradGradGradGradGradGradGradGradGrad

 ---------------------------------------------------------------------------------------------------
                            Z-MATRIX (ANGSTROMS AND DEGREES)
   CD    Cent   Atom    N1       Length/X        N2       Alpha/Y        N3        Beta/Z          J
 ---------------------------------------------------------------------------------------------------
      1      1  C 
      2      2  O        1   2.116973(     1)
      3      3  H        1   3.008489(     2)      2   72.330(    14)
      4      4  H        1   3.466080(     3)      2  102.743(    15)      3    4.835(    26)      0
      5      5  H        1   2.173883(     4)      2   97.410(    16)      3   51.260(    27)      0
      6      6  H        1   2.394714(     5)      2  153.835(    17)      3   72.661(    28)      0
      7      7  H        1   1.083174(     6)      2   90.905(    18)      3  146.464(    29)      0
      8      8  H        2   0.971509(     7)      1  116.745(    19)      7   72.025(    30)      0
      9      9  H        2   0.970090(     8)      1  118.207(    20)      7  -56.202(    31)      0
     10     10  H        1   1.082406(     9)      2   88.798(    21)      9   62.932(    32)      0
     11     11  C        1   2.583191(    10)      2   93.005(    22)      9  154.450(    33)      0
     12     12  C        1   1.471502(    11)      2  105.460(    23)     11   27.816(    34)      0
     13     13  O       12   1.484634(    12)      1   77.683(    24)      2 -176.601(    35)      0
     14     14  H       11   1.093247(    13)      1   87.982(    25)     12  142.706(    36)      0
 ---------------------------------------------------------------------------------------------------
                         Z-Matrix orientation:                         
 ---------------------------------------------------------------------
 Center     Atomic      Atomic             Coordinates (Angstroms)
 Number     Number       Type             X           Y           Z
 ---------------------------------------------------------------------
      1          6           0        0.000000    0.000000    0.000000
      2          8           0        0.000000    0.000000    2.116973
      3          1           0        2.866543    0.000000    0.913204
      4          1           0        3.368684   -0.284929   -0.764524
      5          1           0        1.349016   -1.681466   -0.280350
      6          1           0        0.314707   -1.007997   -2.149316
      7          1           0       -0.902753   -0.598339   -0.017115
      8          1           0        0.232744   -0.835776    2.554166
      9          1           0       -0.788867    0.329432    2.575490
     10          1           0       -0.083064    1.078975    0.022714
     11          6           0        2.576370    0.129816   -0.135424
     12          6           0        1.286093   -0.597845   -0.392253
     13          8           0        0.695549   -0.228494   -1.703349
     14          1           0        2.473034    1.198199   -0.342953
 ---------------------------------------------------------------------
                    Distance matrix (angstroms):
                    1          2          3          4          5
     1  C    0.000000
     2  O    2.116973   0.000000
     3  H    3.008489   3.109039   0.000000
     4  H    3.466080   4.442098   1.774289   0.000000
     5  H    2.173883   3.224023   2.560231   2.502758   0.000000
     6  H    2.394714   4.395033   4.111806   3.430343   2.239730
     7  H    1.083174   2.393178   3.928243   4.347645   2.512552
     8  H    2.697490   0.971509   3.213748   4.599049   3.161603
     9  H    2.713666   0.970090   4.029112   5.368273   4.095128
    10  H    1.082406   2.357330   3.264558   3.794013   3.124537
    11  C    2.583191   3.424591   1.095752   1.093408   2.192748
    12  C    1.471502   2.882302   2.135288   2.138618   1.091199
    13  O    1.854022   3.889840   3.407606   2.833766   2.136135
    14  H    2.769332   3.688199   1.780017   1.783137   3.091894
                    6          7          8          9         10
     6  H    0.000000
     7  H    2.489239   0.000000
     8  H    4.707347   2.820853   0.000000
     9  H    5.032929   2.755962   1.549791   0.000000
    10  H    3.038320   1.867314   3.189711   2.752569   0.000000
    11  C    3.235042   3.556473   3.695787   4.325935   2.828161
    12  C    2.049167   2.220760   3.138079   3.738020   2.204204
    13  O    0.975475   2.352603   4.325438   4.563248   2.301088
    14  H    3.576119   3.837924   4.189183   4.462294   2.584872
                   11         12         13         14
    11  C    0.000000
    12  C    1.503418   0.000000
    13  O    2.474725   1.484634   0.000000
    14  H    1.093247   2.153377   2.654353   0.000000
 Stoichiometry    C3H9O2(1+)
 Framework group  C1[X(C3H9O2)]
 Deg. of freedom    36
 Full point group                 C1      NOp   1
 Largest Abelian subgroup         C1      NOp   1
 Largest concise Abelian subgroup C1      NOp   1
                         Standard orientation:                         
 ---------------------------------------------------------------------
 Center     Atomic      Atomic             Coordinates (Angstroms)
 Number     Number       Type             X           Y           Z
 ---------------------------------------------------------------------
      1          6           0       -0.345908   -0.786898   -0.225215
      2          8           0       -2.233620    0.144033    0.001684
      3          1           0        0.125767    2.166195    0.103073
      4          1           0        1.864184    1.841254    0.245975
      5          1           0        0.610254    0.089212    1.519477
      6          1           0        1.772363   -1.572646    0.568625
      7          1           0       -0.699705   -1.669622    0.293333
      8          1           0       -2.468862    0.443362    0.895492
      9          1           0       -3.016166   -0.317055   -0.339043
     10          1           0       -0.468224   -0.721629   -1.298706
     11          6           0        0.922859    1.462328   -0.161289
     12          6           0        0.616733    0.113768    0.428573
     13          8           0        1.498732   -0.944195   -0.125440
     14          1           0        0.997393    1.407035   -1.250590
 ---------------------------------------------------------------------
 Rotational constants (GHZ):      6.8008550      3.0347899      2.2960614
 Standard basis: 6-31++G(d,p) (6D, 7F)
 The following finite field(s) will be applied:
 An electric field of              0.0000  0.0000 -0.0050
 There are   149 symmetry adapted basis functions of A   symmetry.
 Integral buffers will be    131072 words long.
 Raffenetti 2 integral format.
 Two-electron integral symmetry is turned on.
   149 basis functions,   232 primitive gaussians,   149 cartesian basis functions
    21 alpha electrons       21 beta electrons
       nuclear repulsion energy       194.1674285019 Hartrees.
 NAtoms=   14 NActive=   14 NUniq=   14 SFac= 1.00D+00 NAtFMM=   50 NAOKFM=F Big=F
 One-electron integrals computed using PRISM.
 PrsmSu:  requested number of processors reduced to:  10 ShMem   1 Linda.
 NBasis=   149 RedAO= T  NBF=   149
 NBsUse=   149 1.00D-06 NBFU=   149
 The nuclear repulsion energy is now       194.1674285019 hartrees.
 Initial guess read from the read-write file.
 B after Tr=     0.000000    0.000000    0.000000
         Rot=    1.000000    0.000000    0.000000    0.000000 Ang=   0.00 deg.
 Initial guess orbital symmetries:
       Occupied  (A) (A) (A) (A) (A) (A) (A) (A) (A) (A) (A) (A)
                 (A) (A) (A) (A) (A) (A) (A) (A) (A)
       Virtual   (A) (A) (A) (A) (A) (A) (A) (A) (A) (A) (A) (A)
                 (A) (A) (A) (A) (A) (A) (A) (A) (A) (A) (A) (A)
                 (A) (A) (A) (A) (A) (A) (A) (A) (A) (A) (A) (A)
                 (A) (A) (A) (A) (A) (A) (A) (A) (A) (A) (A) (A)
                 (A) (A) (A) (A) (A) (A) (A) (A) (A) (A) (A) (A)
                 (A) (A) (A) (A) (A) (A) (A) (A) (A) (A) (A) (A)
                 (A) (A) (A) (A) (A) (A) (A) (A) (A) (A) (A) (A)
                 (A) (A) (A) (A) (A) (A) (A) (A) (A) (A) (A) (A)
                 (A) (A) (A) (A) (A) (A) (A) (A) (A) (A) (A) (A)
                 (A) (A) (A) (A) (A) (A) (A) (A) (A) (A) (A) (A)
                 (A) (A) (A) (A) (A) (A) (A) (A)
 Harris functional with IExCor=  402 diagonalized for initial guess.
 ExpMin= 3.60D-02 ExpMax= 5.48D+03 ExpMxC= 8.25D+02 IAcc=3 IRadAn=         0 AccDes= 0.00D+00
 HarFok:  IExCor=  402 AccDes= 0.00D+00 IRadAn=         0 IDoV= 1
 ScaDFX=  1.000000  1.000000  1.000000  1.000000
 FoFCou: FMM=F IPFlag=           0 FMFlag=      100000 FMFlg1=           0
         NFxFlg=           0 DoJE=T BraDBF=F KetDBF=T FulRan=T
         Omega=  0.000000  0.000000  1.000000  0.000000  0.000000 ICntrl=     500 IOpCl=  0
         NMat0=    1 NMatS0=    1 NMatT0=    0 NMatD0=    1 NMtDS0=    0 NMtDT0=    0
         I1Cent=           4 NGrid=           0.
 Petite list used in FoFCou.
 Requested convergence on RMS density matrix=1.00D-08 within 128 cycles.
 Requested convergence on MAX density matrix=1.00D-06.
 Requested convergence on             energy=1.00D-06.
 No special actions if energy rises.
 SCF Done:  E(RB3LYP) =  -269.891514596     A.U. after   10 cycles
             Convg  =    0.5558D-08             -V/T =  2.0096
 PrsmSu:  requested number of processors reduced to:  10 ShMem   1 Linda.
 PrsmSu:  requested number of processors reduced to:  23 ShMem   1 Linda.
 Calling FoFJK, ICntrl=      2127 FMM=F ISym2X=0 I1Cent= 0 IOpClX= 0 NMat=1 NMatS=1 NMatT=0.
 CoulSu:  requested number of processors reduced to:  16 ShMem   1 Linda.
 ***** Axes restored to original set *****
 -------------------------------------------------------------------
 Center     Atomic                   Forces (Hartrees/Bohr)
 Number     Number              X              Y              Z
 -------------------------------------------------------------------
      1        6           0.000328810   -0.003940310    0.000325232
      2        8          -0.000211961   -0.000831219    0.000168182
      3        1          -0.000154260   -0.000236551   -0.000902428
      4        1          -0.000209234    0.000206236    0.000360440
      5        1           0.000042323    0.000068724   -0.000017344
      6        1          -0.000020685   -0.000085142   -0.000117247
      7        1          -0.000029829    0.000028455   -0.000006229
      8        1           0.000169146    0.000038652    0.000016507
      9        1           0.000012862    0.000091554   -0.000015854
     10        1           0.000031231   -0.000007160    0.000024830
     11        6           0.000245403   -0.000549185    0.000429120
     12        6           0.000121319    0.000181509    0.000094099
     13        8           0.000053725    0.000103648    0.000198138
     14        1           0.000023046   -0.000024137   -0.000021542
 -------------------------------------------------------------------
 Cartesian Forces:  Max     0.003940310 RMS     0.000660847
 -----------------------------------------------------------------------------------------------
                       Internal Coordinate Forces (Hartree/Bohr or radian)
  Cent   Atom   N1       Length/X         N2         Alpha/Y        N3         Beta/Z          J
 -----------------------------------------------------------------------------------------------
      1  C 
      2  O        1   0.000169(     1)
      3  H        1  -0.000421(     2)      2   0.004622(    14)
      4  H        1  -0.000300(     3)      2  -0.001976(    15)      3  -0.001200(    26)     0
      5  H        1  -0.000025(     4)      2   0.000085(    16)      3  -0.000310(    27)     0
      6  H        1   0.000138(     5)      2  -0.000071(    17)      3   0.000090(    28)     0
      7  H        1   0.000009(     6)      2   0.000012(    18)      3   0.002167(    29)     0
      8  H        2   0.000015(     7)      1   0.000020(    19)      7   0.000284(    30)     0
      9  H        2   0.000013(     8)      1  -0.000046(    20)      7  -0.002368(    31)     0
     10  H        1  -0.000009(     9)      2  -0.000051(    21)      9   0.000063(    32)     0
     11  C        1   0.000218(    10)      2  -0.001979(    22)      9   0.002161(    33)     0
     12  C        1  -0.000041(    11)      2  -0.000661(    23)     11  -0.000701(    34)     0
     13  O       12  -0.000171(    12)      1  -0.000242(    24)      2   0.000350(    35)     0
     14  H       11  -0.000022(    13)      1   0.000046(    25)     12  -0.000051(    36)     0
 -----------------------------------------------------------------------------------------------
 Internal  Forces:  Max     0.004622226 RMS     0.001146471

 GradGradGradGradGradGradGradGradGradGradGradGradGradGradGradGradGradGrad
 Berny optimization.
 Search for a saddle point.
 Step number   2 out of a maximum of  100
 All quantities printed in internal units (Hartrees-Bohrs-Radians)
 Swaping is turned off.
 Update second derivatives using D2CorN and points    1    2
 ITU=  0  0
     Eigenvalues ---   -0.02009   0.00032   0.00541   0.01009   0.01256
     Eigenvalues ---    0.02295   0.02822   0.03610   0.03776   0.06335
     Eigenvalues ---    0.07044   0.10820   0.13411   0.15351   0.16045
     Eigenvalues ---    0.21090   0.24675   0.30502   0.33455   0.34100
     Eigenvalues ---    0.36000   0.37881   0.38158   0.47576   0.51896
     Eigenvalues ---    0.52792   0.54562   0.59215   0.89482   1.68572
     Eigenvalues ---    3.55899   4.54399   5.61309   7.82966  19.30345
     Eigenvalues ---   30.52211
 Eigenvectors required to have negative eigenvalues:
                          B1        B5        A11       A5        A8
   1                    0.73721  -0.41338  -0.32320  -0.20256  -0.14402
                          A7        D3        A10       D11       D5
   1                    0.13341   0.13182  -0.12744   0.11441   0.11224
 RFO step:  Lambda0=2.876614730D-06 Lambda=-3.44213418D-05.
 Linear search not attempted -- option 19 set.
 Variable       Old X    -DE/DX   Delta X   Delta X   Delta X     New X
                                 (Linear)    (Quad)   (Total)
    B1        4.00050   0.00017   0.00000  -0.00394  -0.00394   3.99656
    B2        5.68522  -0.00042   0.00000  -0.02156  -0.02156   5.66366
    B3        6.54994  -0.00030   0.00000   0.00815   0.00815   6.55809
    B4        4.10804  -0.00002   0.00000  -0.00036  -0.00036   4.10769
    B5        4.52535   0.00014   0.00000   0.01015   0.01015   4.53551
    B6        2.04690   0.00001   0.00000  -0.00004  -0.00004   2.04686
    B7        1.83589   0.00001   0.00000  -0.00024  -0.00024   1.83565
    B8        1.83320   0.00001   0.00000   0.00019   0.00019   1.83339
    B9        2.04545  -0.00001   0.00000   0.00000   0.00000   2.04545
   B10        4.88152   0.00022   0.00000   0.00075   0.00075   4.88227
   B11        2.78073  -0.00004   0.00000   0.00126   0.00126   2.78199
   B12        2.80555  -0.00017   0.00000  -0.00261  -0.00261   2.80294
   B13        2.06594  -0.00002   0.00000   0.00010   0.00010   2.06603
    A1        1.26239   0.00462   0.00000   0.00447   0.00447   1.26686
    A2        1.79320  -0.00198   0.00000  -0.00040  -0.00040   1.79280
    A3        1.70012   0.00009   0.00000   0.00502   0.00502   1.70514
    A4        2.68492  -0.00007   0.00000   0.00293   0.00293   2.68785
    A5        1.58660   0.00001   0.00000  -0.00006  -0.00006   1.58654
    A6        2.03758   0.00002   0.00000   0.00645   0.00645   2.04403
    A7        2.06310  -0.00005   0.00000  -0.00509  -0.00509   2.05801
    A8        1.54981  -0.00005   0.00000  -0.00282  -0.00282   1.54699
    A9        1.62325  -0.00198   0.00000   0.00697   0.00697   1.63021
   A10        1.84063  -0.00066   0.00000   0.00732   0.00732   1.84794
   A11        1.35582  -0.00024   0.00000   0.00417   0.00417   1.35999
   A12        1.53558   0.00005   0.00000   0.00746   0.00746   1.54304
    D1        0.08438  -0.00120   0.00000   0.01428   0.01428   0.09866
    D2        0.89466  -0.00031   0.00000   0.00992   0.00992   0.90458
    D3        1.26818   0.00009   0.00000   0.01433   0.01433   1.28250
    D4        2.55628   0.00217   0.00000   0.00892   0.00892   2.56520
    D5        1.25707   0.00028   0.00000   0.12032   0.12032   1.37740
    D6       -0.98090  -0.00237   0.00000   0.11534   0.11534  -0.86557
    D7        1.09838   0.00006   0.00000   0.11647   0.11647   1.21485
    D8        2.69566   0.00216   0.00000   0.11611   0.11611   2.81177
    D9        0.48548  -0.00070   0.00000   0.00023   0.00023   0.48571
   D10       -3.08227   0.00035   0.00000  -0.00070  -0.00070  -3.08297
   D11        2.49069  -0.00005   0.00000  -0.02803  -0.02803   2.46266
         Item               Value     Threshold  Converged?
 Maximum Force            0.004622     0.000015     NO 
 RMS     Force            0.001146     0.000010     NO 
 Maximum Displacement     0.120324     0.000060     NO 
 RMS     Displacement     0.039849     0.000040     NO 
 Predicted change in Energy=-1.674983D-05
 GradGradGradGradGradGradGradGradGradGradGradGradGradGradGradGradGradGrad

 ---------------------------------------------------------------------------------------------------
                            Z-MATRIX (ANGSTROMS AND DEGREES)
   CD    Cent   Atom    N1       Length/X        N2       Alpha/Y        N3        Beta/Z          J
 ---------------------------------------------------------------------------------------------------
      1      1  C 
      2      2  O        1   2.114888(     1)
      3      3  H        1   2.997079(     2)      2   72.586(    14)
      4      4  H        1   3.470391(     3)      2  102.720(    15)      3    5.653(    26)      0
      5      5  H        1   2.173694(     4)      2   97.697(    16)      3   51.829(    27)      0
      6      6  H        1   2.400088(     5)      2  154.003(    17)      3   73.482(    28)      0
      7      7  H        1   1.083150(     6)      2   90.902(    18)      3  146.975(    29)      0
      8      8  H        2   0.971383(     7)      1  117.114(    19)      7   78.919(    30)      0
      9      9  H        2   0.970190(     8)      1  117.915(    20)      7  -49.593(    31)      0
     10     10  H        1   1.082405(     9)      2   88.636(    21)      9   69.606(    32)      0
     11     11  C        1   2.583588(    10)      2   93.404(    22)      9  161.103(    33)      0
     12     12  C        1   1.472168(    11)      2  105.879(    23)     11   27.829(    34)      0
     13     13  O       12   1.483253(    12)      1   77.922(    24)      2 -176.641(    35)      0
     14     14  H       11   1.093298(    13)      1   88.410(    25)     12  141.100(    36)      0
 ---------------------------------------------------------------------------------------------------
                         Z-Matrix orientation:                         
 ---------------------------------------------------------------------
 Center     Atomic      Atomic             Coordinates (Angstroms)
 Number     Number       Type             X           Y           Z
 ---------------------------------------------------------------------
      1          6           0        0.000000    0.000000    0.000000
      2          8           0        0.000000    0.000000    2.114888
      3          1           0        2.859711    0.000000    0.896959
      4          1           0        3.368759   -0.333455   -0.764125
      5          1           0        1.331270   -1.693487   -0.291150
      6          1           0        0.299110   -1.008612   -2.157234
      7          1           0       -0.908035   -0.590249   -0.017052
      8          1           0        0.323114   -0.801983    2.557612
      9          1           0       -0.821705    0.244465    2.569097
     10          1           0       -0.072207    1.079686    0.025767
     11          6           0        2.576898    0.104809   -0.153419
     12          6           0        1.278052   -0.609601   -0.402799
     13          8           0        0.687624   -0.233822   -1.710555
     14          1           0        2.489217    1.168977   -0.388276
 ---------------------------------------------------------------------
                    Distance matrix (angstroms):
                    1          2          3          4          5
     1  C    0.000000
     2  O    2.114888   0.000000
     3  H    2.997079   3.108263   0.000000
     4  H    3.470391   4.443922   1.769045   0.000000
     5  H    2.173694   3.229426   2.572088   2.494946   0.000000
     6  H    2.400088   4.399748   4.111213   3.437926   2.239794
     7  H    1.083150   2.391253   3.921699   4.349141   2.511324
     8  H    2.699807   0.971383   3.136123   4.530939   3.150651
     9  H    2.708362   0.970190   4.050757   5.385568   4.070869
    10  H    1.082405   2.352735   3.243584   3.802781   3.124208
    11  C    2.583588   3.434618   1.092823   1.091825   2.191901
    12  C    1.472168   2.888560   2.136031   2.139595   1.090921
    13  O    1.858359   3.893778   3.401729   2.845020   2.135325
    14  H    2.777313   3.718674   1.776402   1.781056   3.089333
                    6          7          8          9         10
     6  H    0.000000
     7  H    2.492509   0.000000
     8  H    4.719432   2.861723   0.000000
     9  H    5.016436   2.718892   1.551063   0.000000
    10  H    3.043741   1.867921   3.179182   2.779905   0.000000
    11  C    3.231610   3.556187   3.640261   4.356845   2.828471
    12  C    2.048311   2.219945   3.116561   3.737724   2.204668
    13  O    0.975072   2.353959   4.321218   4.563141   2.305962
    14  H    3.559168   3.843697   4.153907   4.534642   2.596208
                   11         12         13         14
    11  C    0.000000
    12  C    1.503187   0.000000
    13  O    2.471578   1.483253   0.000000
    14  H    1.093298   2.151852   2.638561   0.000000
 Stoichiometry    C3H9O2(1+)
 Framework group  C1[X(C3H9O2)]
 Deg. of freedom    36
 Full point group                 C1      NOp   1
 Largest Abelian subgroup         C1      NOp   1
 Largest concise Abelian subgroup C1      NOp   1
                         Standard orientation:                         
 ---------------------------------------------------------------------
 Center     Atomic      Atomic             Coordinates (Angstroms)
 Number     Number       Type             X           Y           Z
 ---------------------------------------------------------------------
      1          6           0       -0.351086   -0.783998   -0.225438
      2          8           0       -2.238675    0.143899   -0.004611
      3          1           0        0.125891    2.159901    0.071943
      4          1           0        1.856488    1.848334    0.265545
      5          1           0        0.608265    0.088850    1.518904
      6          1           0        1.770318   -1.574898    0.571144
      7          1           0       -0.705002   -1.666351    0.293609
      8          1           0       -2.439857    0.537902    0.860185
      9          1           0       -3.026277   -0.362688   -0.258227
     10          1           0       -0.473135   -0.718076   -1.298917
     11          6           0        0.930552    1.458386   -0.161848
     12          6           0        0.617087    0.111880    0.428263
     13          8           0        1.497278   -0.947029   -0.123113
     14          1           0        1.035164    1.394450   -1.248250
 ---------------------------------------------------------------------
 Rotational constants (GHZ):      6.8147758      3.0282571      2.2914322
 Standard basis: 6-31++G(d,p) (6D, 7F)
 The following finite field(s) will be applied:
 An electric field of              0.0000  0.0000 -0.0050
 There are   149 symmetry adapted basis functions of A   symmetry.
 Integral buffers will be    131072 words long.
 Raffenetti 2 integral format.
 Two-electron integral symmetry is turned on.
   149 basis functions,   232 primitive gaussians,   149 cartesian basis functions
    21 alpha electrons       21 beta electrons
       nuclear repulsion energy       194.1513228097 Hartrees.
 NAtoms=   14 NActive=   14 NUniq=   14 SFac= 1.00D+00 NAtFMM=   50 NAOKFM=F Big=F
 One-electron integrals computed using PRISM.
 PrsmSu:  requested number of processors reduced to:  10 ShMem   1 Linda.
 NBasis=   149 RedAO= T  NBF=   149
 NBsUse=   149 1.00D-06 NBFU=   149
 The nuclear repulsion energy is now       194.1513228097 hartrees.
 Initial guess read from the read-write file.
 B after Tr=     0.000000    0.000000    0.000000
         Rot=    1.000000    0.000000    0.000000    0.000000 Ang=   0.00 deg.
 Initial guess orbital symmetries:
       Occupied  (A) (A) (A) (A) (A) (A) (A) (A) (A) (A) (A) (A)
                 (A) (A) (A) (A) (A) (A) (A) (A) (A)
       Virtual   (A) (A) (A) (A) (A) (A) (A) (A) (A) (A) (A) (A)
                 (A) (A) (A) (A) (A) (A) (A) (A) (A) (A) (A) (A)
                 (A) (A) (A) (A) (A) (A) (A) (A) (A) (A) (A) (A)
                 (A) (A) (A) (A) (A) (A) (A) (A) (A) (A) (A) (A)
                 (A) (A) (A) (A) (A) (A) (A) (A) (A) (A) (A) (A)
                 (A) (A) (A) (A) (A) (A) (A) (A) (A) (A) (A) (A)
                 (A) (A) (A) (A) (A) (A) (A) (A) (A) (A) (A) (A)
                 (A) (A) (A) (A) (A) (A) (A) (A) (A) (A) (A) (A)
                 (A) (A) (A) (A) (A) (A) (A) (A) (A) (A) (A) (A)
                 (A) (A) (A) (A) (A) (A) (A) (A) (A) (A) (A) (A)
                 (A) (A) (A) (A) (A) (A) (A) (A)
 Harris functional with IExCor=  402 diagonalized for initial guess.
 ExpMin= 3.60D-02 ExpMax= 5.48D+03 ExpMxC= 8.25D+02 IAcc=3 IRadAn=         0 AccDes= 0.00D+00
 HarFok:  IExCor=  402 AccDes= 0.00D+00 IRadAn=         0 IDoV= 1
 ScaDFX=  1.000000  1.000000  1.000000  1.000000
 FoFCou: FMM=F IPFlag=           0 FMFlag=      100000 FMFlg1=           0
         NFxFlg=           0 DoJE=T BraDBF=F KetDBF=T FulRan=T
         Omega=  0.000000  0.000000  1.000000  0.000000  0.000000 ICntrl=     500 IOpCl=  0
         NMat0=    1 NMatS0=    1 NMatT0=    0 NMatD0=    1 NMtDS0=    0 NMtDT0=    0
         I1Cent=           4 NGrid=           0.
 Petite list used in FoFCou.
 Requested convergence on RMS density matrix=1.00D-08 within 128 cycles.
 Requested convergence on MAX density matrix=1.00D-06.
 Requested convergence on             energy=1.00D-06.
 No special actions if energy rises.
 SCF Done:  E(RB3LYP) =  -269.891485415     A.U. after   10 cycles
             Convg  =    0.2545D-08             -V/T =  2.0095
 PrsmSu:  requested number of processors reduced to:  10 ShMem   1 Linda.
 PrsmSu:  requested number of processors reduced to:  23 ShMem   1 Linda.
 Calling FoFJK, ICntrl=      2127 FMM=F ISym2X=0 I1Cent= 0 IOpClX= 0 NMat=1 NMatS=1 NMatT=0.
 CoulSu:  requested number of processors reduced to:  16 ShMem   1 Linda.
 ***** Axes restored to original set *****
 -------------------------------------------------------------------
 Center     Atomic                   Forces (Hartrees/Bohr)
 Number     Number              X              Y              Z
 -------------------------------------------------------------------
      1        6           0.000568901   -0.003959667    0.000589566
      2        8           0.000065445   -0.000515295   -0.000103357
      3        1           0.000179588   -0.000638041    0.001045546
      4        1           0.000274849   -0.000273902   -0.000466253
      5        1          -0.000053344   -0.000169694    0.000037474
      6        1          -0.000220855   -0.000378096   -0.000182172
      7        1          -0.000018238    0.000004225    0.000019377
      8        1          -0.000103478   -0.000011474    0.000013319
      9        1          -0.000009675   -0.000074676    0.000047912
     10        1          -0.000042026   -0.000006299   -0.000045593
     11        6          -0.000406706    0.000636330   -0.000494463
     12        6          -0.000045454    0.000014249   -0.000113941
     13        8           0.000213300    0.000377788    0.000169130
     14        1          -0.000046109    0.000034656    0.000005532
 -------------------------------------------------------------------
 Cartesian Forces:  Max     0.003959667 RMS     0.000687698
 -----------------------------------------------------------------------------------------------
                       Internal Coordinate Forces (Hartree/Bohr or radian)
  Cent   Atom   N1       Length/X         N2         Alpha/Y        N3         Beta/Z          J
 -----------------------------------------------------------------------------------------------
      1  C 
      2  O        1  -0.000042(     1)
      3  H        1   0.000484(     2)      2  -0.005346(    14)
      4  H        1   0.000396(     3)      2   0.002549(    15)      3   0.001570(    26)     0
      5  H        1   0.000095(     4)      2  -0.000208(    16)      3   0.000598(    27)     0
      6  H        1   0.000295(     5)      2  -0.000860(    17)      3   0.000635(    28)     0
      7  H        1   0.000013(     6)      2  -0.000040(    18)      3  -0.004027(    29)     0
      8  H        2  -0.000019(     7)      1   0.000045(    19)      7  -0.000164(    30)     0
      9  H        2   0.000012(     8)      1   0.000088(    20)      7   0.004218(    31)     0
     10  H        1  -0.000005(     9)      2   0.000093(    21)      9  -0.000087(    32)     0
     11  C        1  -0.000395(    10)      2   0.002492(    22)      9  -0.004011(    33)     0
     12  C        1  -0.000032(    11)      2   0.000055(    23)     11  -0.000583(    34)     0
     13  O       12  -0.000138(    12)      1  -0.000133(    24)      2   0.001212(    35)     0
     14  H       11   0.000036(    13)      1  -0.000091(    25)     12   0.000022(    36)     0
 -----------------------------------------------------------------------------------------------
 Internal  Forces:  Max     0.005345801 RMS     0.001649529

 GradGradGradGradGradGradGradGradGradGradGradGradGradGradGradGradGradGrad
 Berny optimization.
 Search for a saddle point.
 Step number   3 out of a maximum of  100
 All quantities printed in internal units (Hartrees-Bohrs-Radians)
 Swaping is turned off.
 Update second derivatives using D2CorN and points    1    2    3
 ITU=  0  0  0
     Eigenvalues ---   -0.02011   0.00037   0.00557   0.01010   0.01258
     Eigenvalues ---    0.02291   0.02826   0.03610   0.03777   0.06335
     Eigenvalues ---    0.07044   0.10820   0.13412   0.15351   0.16045
     Eigenvalues ---    0.21090   0.24674   0.30503   0.33454   0.34100
     Eigenvalues ---    0.36000   0.37881   0.38158   0.47575   0.51896
     Eigenvalues ---    0.52792   0.54562   0.59215   0.89482   1.68573
     Eigenvalues ---    3.55899   4.54399   5.61311   7.82968  19.30346
     Eigenvalues ---   30.52213
 Eigenvectors required to have negative eigenvalues:
                          B1        B5        A11       A5        A8
   1                    0.73704  -0.41336  -0.32327  -0.20244  -0.14391
                          A7        D3        A10       D11       B12
   1                    0.13355   0.13131  -0.12771   0.11469   0.11098
 RFO step:  Lambda0=4.864068054D-07 Lambda=-2.10147778D-05.
 Linear search not attempted -- option 19 set.
 Variable       Old X    -DE/DX   Delta X   Delta X   Delta X     New X
                                 (Linear)    (Quad)   (Total)
    B1        3.99656  -0.00004   0.00000   0.00375   0.00375   4.00031
    B2        5.66366   0.00048   0.00000   0.02499   0.02499   5.68865
    B3        6.55809   0.00040   0.00000  -0.00736  -0.00736   6.55072
    B4        4.10769   0.00009   0.00000   0.00043   0.00043   4.10812
    B5        4.53551   0.00030   0.00000  -0.00320  -0.00320   4.53231
    B6        2.04686   0.00001   0.00000   0.00012   0.00012   2.04698
    B7        1.83565  -0.00002   0.00000   0.00004   0.00004   1.83569
    B8        1.83339   0.00001   0.00000   0.00016   0.00016   1.83355
    B9        2.04545   0.00000   0.00000  -0.00014  -0.00014   2.04531
   B10        4.88227  -0.00040   0.00000   0.00029   0.00029   4.88257
   B11        2.78199  -0.00003   0.00000  -0.00040  -0.00040   2.78160
   B12        2.80294  -0.00014   0.00000   0.00069   0.00069   2.80363
   B13        2.06603   0.00004   0.00000  -0.00013  -0.00013   2.06590
    A1        1.26686  -0.00535   0.00000   0.00176   0.00176   1.26862
    A2        1.79280   0.00255   0.00000   0.00666   0.00666   1.79946
    A3        1.70514  -0.00021   0.00000   0.00326   0.00326   1.70840
    A4        2.68785  -0.00086   0.00000   0.00434   0.00434   2.69220
    A5        1.58654  -0.00004   0.00000   0.00043   0.00043   1.58697
    A6        2.04403   0.00005   0.00000  -0.00247  -0.00247   2.04156
    A7        2.05801   0.00009   0.00000  -0.00311  -0.00311   2.05490
    A8        1.54699   0.00009   0.00000  -0.00286  -0.00286   1.54413
    A9        1.63021   0.00249   0.00000  -0.00141  -0.00141   1.62881
   A10        1.84794   0.00005   0.00000   0.00075   0.00075   1.84869
   A11        1.35999  -0.00013   0.00000  -0.00183  -0.00183   1.35817
   A12        1.54304  -0.00009   0.00000  -0.00730  -0.00730   1.53574
    D1        0.09866   0.00157   0.00000  -0.01689  -0.01689   0.08177
    D2        0.90458   0.00060   0.00000  -0.01160  -0.01160   0.89298
    D3        1.28250   0.00063   0.00000  -0.01366  -0.01366   1.26885
    D4        2.56520  -0.00403   0.00000  -0.01156  -0.01156   2.55364
    D5        1.37740  -0.00016   0.00000  -0.00031  -0.00031   1.37709
    D6       -0.86557   0.00422   0.00000   0.00945   0.00945  -0.85612
    D7        1.21485  -0.00009   0.00000   0.00906   0.00906   1.22391
    D8        2.81177  -0.00401   0.00000   0.00944   0.00944   2.82121
    D9        0.48571  -0.00058   0.00000  -0.00104  -0.00104   0.48467
   D10       -3.08297   0.00121   0.00000   0.00477   0.00477  -3.07820
   D11        2.46266   0.00002   0.00000   0.02666   0.02666   2.48932
         Item               Value     Threshold  Converged?
 Maximum Force            0.005346     0.000015     NO 
 RMS     Force            0.001650     0.000010     NO 
 Maximum Displacement     0.026663     0.000060     NO 
 RMS     Displacement     0.008498     0.000040     NO 
 Predicted change in Energy=-1.029131D-05
 GradGradGradGradGradGradGradGradGradGradGradGradGradGradGradGradGradGrad

 ---------------------------------------------------------------------------------------------------
                            Z-MATRIX (ANGSTROMS AND DEGREES)
   CD    Cent   Atom    N1       Length/X        N2       Alpha/Y        N3        Beta/Z          J
 ---------------------------------------------------------------------------------------------------
      1      1  C 
      2      2  O        1   2.116871(     1)
      3      3  H        1   3.010305(     2)      2   72.686(    14)
      4      4  H        1   3.466494(     3)      2  103.102(    15)      3    4.685(    26)      0
      5      5  H        1   2.173924(     4)      2   97.884(    16)      3   51.164(    27)      0
      6      6  H        1   2.398394(     5)      2  154.251(    17)      3   72.699(    28)      0
      7      7  H        1   1.083214(     6)      2   90.927(    18)      3  146.313(    29)      0
      8      8  H        2   0.971405(     7)      1  116.973(    19)      7   78.901(    30)      0
      9      9  H        2   0.970274(     8)      1  117.737(    20)      7  -49.052(    31)      0
     10     10  H        1   1.082329(     9)      2   88.472(    21)      9   70.125(    32)      0
     11     11  C        1   2.583743(    10)      2   93.324(    22)      9  161.643(    33)      0
     12     12  C        1   1.471958(    11)      2  105.922(    23)     11   27.770(    34)      0
     13     13  O       12   1.483619(    12)      1   77.817(    24)      2 -176.368(    35)      0
     14     14  H       11   1.093228(    13)      1   87.992(    25)     12  142.628(    36)      0
 ---------------------------------------------------------------------------------------------------
                         Z-Matrix orientation:                         
 ---------------------------------------------------------------------
 Center     Atomic      Atomic             Coordinates (Angstroms)
 Number     Number       Type             X           Y           Z
 ---------------------------------------------------------------------
      1          6           0        0.000000    0.000000    0.000000
      2          8           0        0.000000    0.000000    2.116871
      3          1           0        2.873908    0.000000    0.895871
      4          1           0        3.364979   -0.275770   -0.785778
      5          1           0        1.350362   -1.677362   -0.298205
      6          1           0        0.309848   -0.994777   -2.160256
      7          1           0       -0.901201   -0.600735   -0.017521
      8          1           0        0.332536   -0.799324    2.557471
      9          1           0       -0.828089    0.227545    2.568450
     10          1           0       -0.085085    1.078594    0.028857
     11          6           0        2.575881    0.134631   -0.149798
     12          6           0        1.285176   -0.593232   -0.403804
     13          8           0        0.689832   -0.217236   -1.709682
     14          1           0        2.469854    1.203920   -0.351109
 ---------------------------------------------------------------------
                    Distance matrix (angstroms):
                    1          2          3          4          5
     1  C    0.000000
     2  O    2.116871   0.000000
     3  H    3.010305   3.122529   0.000000
     4  H    3.466494   4.452472   1.773456   0.000000
     5  H    2.173924   3.235678   2.561358   2.502173   0.000000
     6  H    2.398394   4.402204   4.111435   3.426366   2.239604
     7  H    1.083214   2.393465   3.930218   4.346966   2.511463
     8  H    2.700029   0.971405   3.139809   4.543912   3.156233
     9  H    2.708218   0.970274   4.068670   5.393143   4.073331
    10  H    1.082329   2.351681   3.266607   3.794849   3.124543
    11  C    2.583743   3.433814   1.095615   1.093424   2.192542
[...]
    B4        4.10792   0.00000   0.00000   0.00000   0.00000   4.10792
    B5        4.53308   0.00000   0.00000   0.00000   0.00000   4.53308
    B6        2.04693   0.00000   0.00000   0.00000   0.00000   2.04693
    B7        1.83571   0.00000   0.00000   0.00000   0.00000   1.83571
    B8        1.83345   0.00000   0.00000   0.00000   0.00000   1.83345
    B9        2.04538   0.00000   0.00000   0.00000   0.00000   2.04538
   B10        4.88245   0.00000   0.00000   0.00000   0.00000   4.88245
   B11        2.78172   0.00000   0.00000   0.00000   0.00000   2.78172
   B12        2.80346   0.00000   0.00000   0.00000   0.00000   2.80346
   B13        2.06595   0.00000   0.00000   0.00000   0.00000   2.06595
    A1        1.26824   0.00000   0.00000   0.00000   0.00000   1.26824
    A2        1.79744   0.00000   0.00000   0.00000   0.00000   1.79744
    A3        1.70670   0.00000   0.00000   0.00000   0.00000   1.70670
    A4        2.68991   0.00000   0.00000   0.00000   0.00000   2.68991
    A5        1.58666   0.00000   0.00000   0.00000   0.00000   1.58666
    A6        2.04225   0.00000   0.00000   0.00000   0.00000   2.04225
    A7        2.05775   0.00000   0.00000   0.00000   0.00000   2.05775
    A8        1.54622   0.00000   0.00000   0.00000   0.00000   1.54622
    A9        1.62934   0.00000   0.00000   0.00000   0.00000   1.62934
   A10        1.84823   0.00000   0.00000   0.00000   0.00000   1.84822
   A11        1.35897   0.00000   0.00000   0.00000   0.00000   1.35897
   A12        1.53800   0.00000   0.00000   0.00000   0.00000   1.53800
    D1        0.08706   0.00000   0.00000   0.00000   0.00000   0.08706
    D2        0.89664   0.00000   0.00000   0.00000   0.00000   0.89664
    D3        1.27424   0.00000   0.00000   0.00000   0.00000   1.27424
    D4        2.55737   0.00000   0.00000   0.00000   0.00000   2.55737
    D5        1.35831   0.00000   0.00000  -0.00002  -0.00002   1.35829
    D6       -0.88050   0.00000   0.00000  -0.00003  -0.00003  -0.88054
    D7        1.19937   0.00000   0.00000  -0.00003  -0.00003   1.19934
    D8        2.79675   0.00000   0.00000  -0.00003  -0.00003   2.79672
    D9        0.48512   0.00000   0.00000   0.00000   0.00000   0.48512
   D10       -3.08068   0.00000   0.00000   0.00000   0.00000  -3.08068
   D11        2.48144   0.00000   0.00000   0.00000   0.00000   2.48145
         Item               Value     Threshold  Converged?
 Maximum Force            0.000001     0.000015     YES
 RMS     Force            0.000000     0.000010     YES
 Maximum Displacement     0.000034     0.000060     YES
 RMS     Displacement     0.000011     0.000040     YES
 Predicted change in Energy=-1.542890D-12
 Optimization completed.
    -- Stationary point found.
                       ----------------------------
                       !   Optimized Parameters   !
                       ! (Angstroms and Degrees)  !
 ----------------------                            ----------------------
 !      Name          Value   Derivative information (Atomic Units)     !
 ------------------------------------------------------------------------
 !       B1          2.1154   -DE/DX =    0.0                           !
 !       B2          3.0062   -DE/DX =    0.0                           !
 !       B3          3.4677   -DE/DX =    0.0                           !
 !       B4          2.1738   -DE/DX =    0.0                           !
 !       B5          2.3988   -DE/DX =    0.0                           !
 !       B6          1.0832   -DE/DX =    0.0                           !
 !       B7          0.9714   -DE/DX =    0.0                           !
 !       B8          0.9702   -DE/DX =    0.0                           !
 !       B9          1.0824   -DE/DX =    0.0                           !
 !       B10         2.5837   -DE/DX =    0.0                           !
 !       B11         1.472    -DE/DX =    0.0                           !
 !       B12         1.4835   -DE/DX =    0.0                           !
 !       B13         1.0933   -DE/DX =    0.0                           !
 !       A1         72.665    -DE/DX =    0.0                           !
 !       A2        102.986    -DE/DX =    0.0                           !
 !       A3         97.7866   -DE/DX =    0.0                           !
 !       A4        154.1203   -DE/DX =    0.0                           !
 !       A5         90.9088   -DE/DX =    0.0                           !
 !       A6        117.0121   -DE/DX =    0.0                           !
 !       A7        117.9003   -DE/DX =    0.0                           !
 !       A8         88.592    -DE/DX =    0.0                           !
 !       A9         93.3544   -DE/DX =    0.0                           !
 !       A10       105.8955   -DE/DX =    0.0                           !
 !       A11        77.8635   -DE/DX =    0.0                           !
 !       A12        88.1208   -DE/DX =    0.0                           !
 !       D1          4.9884   -DE/DX =    0.0                           !
 !       D2         51.3735   -DE/DX =    0.0                           !
 !       D3         73.0087   -DE/DX =    0.0                           !
 !       D4        146.5266   -DE/DX =    0.0                           !
 !       D5         77.8255   -DE/DX =    0.0                           !
 !       D6        -50.4491   -DE/DX =    0.0                           !
 !       D7         68.7191   -DE/DX =    0.0                           !
 !       D8        160.242    -DE/DX =    0.0                           !
 !       D9         27.7952   -DE/DX =    0.0                           !
 !       D10      -176.5099   -DE/DX =    0.0                           !
 !       D11       142.1763   -DE/DX =    0.0                           !
 ------------------------------------------------------------------------
 GradGradGradGradGradGradGradGradGradGradGradGradGradGradGradGradGradGrad

 1\1\GINC-C53N13\Freq\RB3LYP\6-31++G(d,p)\C3H9O2(1+)\ROOT\27-Apr-2018\1
 \\#N Geom=AllCheck Guess=TCheck SCRF=Check GenChk RB3LYP/6-31++G(d,p) 
 Freq\\Title Card Required\\1,1\C\O,1,B1\H,1,B2,2,A1\H,1,B3,2,A2,3,D1,0
 \H,1,B4,2,A3,3,D2,0\H,1,B5,2,A4,3,D3,0\H,1,B6,2,A5,3,D4,0\H,2,B7,1,A6,
 7,D5,0\H,2,B8,1,A7,7,D6,0\H,1,B9,2,A8,9,D7,0\C,1,B10,2,A9,9,D8,0\C,1,B
 11,2,A10,11,D9,0\O,12,B12,1,A11,2,D10,0\H,11,B13,1,A12,12,D11,0\\B1=2.
 11536833\B2=3.00615148\B3=3.46767847\B4=2.17381637\B5=2.3988008\B6=1.0
 8318977\B7=0.9714146\B8=0.97021767\B9=1.08236778\B10=2.58368339\B11=1.
 47202187\B12=1.48352602\B13=1.09325438\A1=72.66498792\A2=102.98596302\
 A3=97.78657956\A4=154.12033528\A5=90.90877499\A6=117.01211254\A7=117.9
 0028566\A8=88.59195674\A9=93.35443168\A10=105.89553828\A11=77.86348169
 \A12=88.12075939\D1=4.98841143\D2=51.37351477\D3=73.00866281\D4=146.52
 660162\D5=77.82548957\D6=-50.44914086\D7=68.71906653\D8=160.24198161\D
 9=27.79518882\D10=-176.50985355\D11=142.17629361\\Version=EM64L-G09Rev
 B.01\State=1-A\HF=-269.8915228\RMSD=7.354e-09\RMSF=6.210e-04\ZeroPoint
 =0.1218607\Thermal=0.1291615\Dipole=-1.066694,-1.1522163,0.7082291\Dip
 oleDeriv=0.1934763,-0.0108203,-0.1955795,-0.0396633,0.2162472,0.044133
 7,-0.4621832,0.1328189,1.9558508,-0.4942325,-0.0028601,0.0726826,-0.00
 34249,-0.470228,0.0081309,0.1130034,-0.0877295,-1.0798204,0.0849769,-0
 .0141004,0.0120024,-0.0298682,0.0901618,0.0346902,-0.0152473,0.0254813
 ,-0.014271,0.0413532,0.003364,0.0169744,0.0018432,0.0626832,-0.0508337
 ,0.0559075,-0.0350143,0.0590662,0.0333365,-0.0330578,-0.0134577,-0.017
 1999,0.0144877,0.0141213,-0.0323861,-0.0138306,0.0565969,0.2756763,0.0
 009694,0.1183814,-0.0182892,0.2824504,0.1415813,0.015568,0.0557323,0.3
 79068,0.0785631,0.0036122,0.016047,0.0041599,0.0933342,-0.0086386,0.01
 66835,-0.0208118,-0.0069678,0.3292931,0.010878,0.0608965,0.0205072,0.3
 095387,-0.0813018,0.0351322,-0.002266,0.2787209,0.3366019,-0.0042437,-
 0.078991,-0.0170538,0.3542825,0.0803966,0.0230465,0.0329659,0.2502895,
 0.0906968,-0.0251219,0.0158213,0.0075139,0.0895737,-0.0075143,0.024989
 9,0.0031329,0.0248223,-0.096585,-0.043491,-0.0510014,-0.0279392,0.0321
 134,-0.0302408,-0.0266102,-0.0128807,0.0169896,0.6367784,0.0149073,-0.
 0499525,0.011316,0.2388262,0.0981423,0.3166946,-0.012199,0.3613615,-0.
 5486067,0.0406848,0.098828,0.0996314,-0.2574044,-0.2615091,-0.0609716,
 -0.0993878,-1.3682302,0.0386717,0.0592794,-0.0226515,0.0084669,-0.0560
 665,0.0188423,-0.0036272,0.0339884,0.0865238\Polar=46.4502548,-0.44976
 33,38.8568591,-3.9663396,2.1748515,57.3292143\PG=C01 [X(C3H9O2)]\NImag
 =1\\0.63383664,0.04397013,0.69092797,-0.03349727,0.03977121,0.02983861
 ,-0.02067059,0.00713372,-0.00823778,0.45930589,0.00731916,-0.01868469,
 -0.00612177,-0.25364322,0.42456708,-0.00835604,-0.00470789,0.02286486,
 -0.13961950,-0.14425864,0.29928263,0.00156733,0.00098309,-0.00234656,0
 .00028896,-0.00022959,0.00059420,0.06988578,0.00059402,0.00059245,-0.0
 0030768,-0.00010060,-0.00024832,0.00009792,-0.00621522,0.05013037,-0.0
 0054277,-0.00020911,-0.00031462,0.00037005,-0.00014626,-0.00009148,0.0
 7654768,-0.03291024,0.31790370,-0.00342071,-0.00441487,0.00026700,0.00
 016234,0.00001321,0.00006428,0.00818152,-0.00420905,-0.00559308,0.2053
 3349,-0.00289825,-0.00213010,-0.00105590,0.00002862,0.00013604,0.00015
 548,-0.00340213,0.00070028,0.00268995,-0.08022898,0.09389877,-0.002586
 63,-0.00098060,0.00027566,0.00031408,-0.00004706,0.00001562,0.02263140
 ,-0.01185795,-0.01593647,-0.12389778,0.06798251,0.14535379,-0.00205834
 ,0.02799061,-0.00170815,0.00016132,-0.00053716,0.00019564,0.00074218,0
 .00064883,-0.00032478,0.00099471,0.00043759,0.00041277,0.06105478,0.00
 026323,-0.00825157,0.00059569,-0.00015780,0.00030581,-0.00005388,-0.00
 013848,0.00016257,-0.00024293,0.00002924,0.00074835,0.00015596,-0.0158
 3244,0.34448946,-0.00061982,-0.02018340,-0.00083903,-0.00030497,0.0005
 3346,0.00073647,0.00052052,0.00051177,0.00038462,-0.00036160,0.0006150
 1,0.00017796,0.00571696,-0.02693033,0.05651283,0.00773278,0.00854823,-
 0.00635856,-0.00078677,-0.00056925,0.00274076,-0.00148787,-0.00046507,
 -0.00009340,-0.00010174,0.00000367,-0.00001167,0.00159088,0.00049984,0
 .00060965,0.09312623,0.00215358,-0.00392870,-0.00321591,-0.00049035,0.
 00020854,0.00188844,0.00073048,0.00065728,0.00022137,0.00009499,0.0001
 4535,-0.00014917,0.00134510,0.00107131,0.00166037,0.14676352,0.3295962
 4,-0.00734225,-0.00457113,-0.00629419,0.00077073,0.00028557,0.00038707
 ,-0.00059931,-0.00045837,0.00042621,0.00022761,0.00000681,0.00027593,-
 0.00065457,0.00071909,0.00264080,0.09343661,0.16414878,0.13847630,-0.2
 6800463,-0.14401892,0.00178627,0.00150963,0.00123698,0.00225642,0.0001
 1129,0.00002884,-0.00007091,-0.00093860,-0.00078391,-0.00057433,0.0010
 5338,-0.00003373,-0.00043868,-0.00025262,0.00012413,0.00134667,0.27333
 270,-0.14623722,-0.15740137,-0.00724604,0.00136615,0.00024172,0.001711
 19,-0.00021766,-0.00003693,0.00004160,0.00074438,0.00066829,0.00008807
 ,-0.00024070,0.00075255,0.00107025,0.00011773,0.00104857,-0.00041155,0
 .14913357,0.15124026,-0.01198842,-0.00458727,-0.02916052,-0.00382635,-
 0.00171021,-0.01168239,-0.00007308,0.00000726,0.00002359,-0.00018591,0
 .00018359,0.00014614,0.00031582,0.00012536,0.00009423,0.00026332,0.000
 52213,0.00071322,-0.00101504,0.00676241,0.04167980,0.00034954,-0.00147
 853,-0.00579639,-0.07979437,0.11608912,-0.03409064,-0.00058495,-0.0002
 3833,0.00001574,-0.00014000,0.00000757,-0.00018461,0.00003224,0.000194
 51,0.00016141,-0.00021044,-0.00005672,-0.00000114,-0.00027493,0.000328
 85,-0.00044892,0.09151603,-0.00288366,0.00146424,0.00897770,0.15487344
 ,-0.35120350,0.17049124,-0.00020430,0.00022469,0.00010125,0.00000666,0
 .00004668,-0.00012733,0.00024219,-0.00015214,-0.00031404,0.00026865,0.
 00026026,-0.00002375,-0.00000390,0.00048272,-0.00133699,-0.15009140,0.
 35814570,-0.00307641,0.00680780,0.00629370,-0.06477514,0.19689569,-0.1
 3482993,0.00041450,0.00013581,0.00016760,-0.00000864,-0.00007740,0.000
 07981,0.00040338,-0.00050119,-0.00040560,0.00030578,-0.00004891,-0.000
 28827,-0.00051064,0.00037746,-0.00107217,0.05531725,-0.18291550,0.1253
 8552,0.00163267,-0.00193983,0.00955202,-0.36639132,0.13255422,0.178725
 59,0.00003931,0.00003075,0.00007565,0.00003404,0.00000514,0.00000753,0
 .00002270,0.00004836,0.00007745,0.00036479,0.00022974,0.00003282,0.000
 45060,-0.00017792,-0.00127188,-0.01156590,-0.00274902,0.01070566,0.375
 98098,-0.00030850,0.00000453,-0.00468418,0.09384882,-0.06098932,-0.022
 55541,0.00012865,-0.00001353,0.00004909,-0.00000332,-0.00005162,0.0000
 5691,0.00004714,0.00000315,-0.00003234,-0.00013542,-0.00008998,-0.0000
 0670,-0.00004116,0.00000170,-0.00052610,0.03483127,-0.00891614,-0.0190
 1296,-0.12794869,0.07006705,0.00656322,-0.00174013,0.00644416,0.206761
 05,-0.05175836,-0.14035391,0.00015295,0.00002885,-0.00002980,-0.000013
 73,-0.00001354,0.00001949,-0.00001945,-0.00004847,0.00011696,0.0004201
 3,0.00017800,-0.00034089,-0.00006021,-0.00068612,-0.00103852,-0.018837
 86,0.00895701,0.00963287,-0.19308627,0.04411818,0.13111721,-0.05722237
 ,0.01638077,0.00601150,-0.00018623,0.00044481,-0.00011316,-0.00020473,
 -0.00012108,-0.00005911,0.00021160,-0.00040620,0.00011584,-0.00341866,
 0.00076607,0.00315957,0.00006181,-0.00004317,-0.00032399,0.00678848,-0
 .02189024,-0.00097441,-0.00021444,-0.00010170,-0.00010642,0.00012491,-
 0.00041360,0.00045824,0.05253561,0.01954500,-0.36818392,-0.01126481,-0
 .00084026,0.00214754,-0.00125965,0.00001247,0.00007818,-0.00004443,-0.
 00015239,0.00004933,-0.00001072,0.00083790,0.00093212,-0.00090662,-0.0
 0065171,0.00011878,0.00029625,0.00454383,-0.00642211,-0.00007286,0.000
 24226,-0.00003179,-0.00072271,0.00006187,0.00010351,0.00036134,-0.0226
 1596,0.37464101,-0.00303129,-0.00367885,-0.02910681,-0.00125785,0.0081
 1822,-0.00931790,0.00014806,0.00018741,-0.00002923,-0.00005838,-0.0000
 5599,-0.00009127,-0.00036274,0.00013283,0.00021956,0.00259155,-0.00042
 949,-0.00071224,-0.00013617,-0.00030229,0.00669956,0.00066327,-0.00090
 847,-0.00221887,-0.00002326,0.00114751,-0.00101179,-0.00596497,0.01024
 441,0.04062209,-0.02781556,-0.01136915,-0.00213926,-0.00008769,-0.0001
 0781,0.00007834,-0.06583895,0.00583321,-0.06972848,-0.18860035,0.07742
 558,0.11648643,0.00361884,0.00030315,0.00123593,-0.00086471,0.00029381
 ,-0.00006606,-0.00148522,0.00160706,-0.00028678,0.00014932,0.00022188,
 0.00004012,-0.00008335,-0.00012549,-0.00020004,0.00199819,-0.00093727,
 0.00033835,0.51857739,0.01097290,0.00978373,0.00206451,0.00029908,-0.0
 0004380,-0.00023897,0.00589138,-0.05063666,0.03081749,0.07559694,-0.09
 216724,-0.06192487,-0.02814180,-0.01101802,-0.00696400,0.00130871,-0.0
 0106933,0.00126222,0.00316398,-0.00148578,0.00009814,-0.00001771,-0.00
 032822,-0.00005801,-0.00000529,0.00017139,0.00001637,0.00095863,0.0012
 0562,-0.00045996,-0.03988121,0.57362713,0.01657976,0.01339962,-0.00056
 052,-0.00069876,0.00014365,0.00075010,-0.06814081,0.03126553,-0.294991
 91,0.11366124,-0.06384515,-0.13819984,0.00362644,0.00086985,0.00374801
 ,-0.00576906,0.00228561,-0.00355456,0.00320079,-0.00213137,0.00021541,
 0.00047829,0.00005047,0.00009884,-0.00002185,-0.00001242,0.00028904,-0
 .00133737,-0.00016413,0.00027400,-0.01722636,-0.00890751,0.57579695,-0
 .24905989,0.07623177,0.07808691,0.00469128,-0.00217579,-0.01067480,-0.
 00541391,-0.00057882,-0.00103370,-0.02402643,-0.01379157,-0.00757334,-
 0.05503018,0.01526374,0.00232384,-0.00910078,0.00674128,-0.00739923,-0
 .01578744,0.01398705,0.00294207,0.00193724,-0.00108468,0.00033440,-0.0
 0186100,0.00047522,-0.00240626,0.00098003,0.00010704,0.00430049,-0.178
 73474,-0.06401091,0.00000352,0.57335561,0.07796956,-0.13023708,-0.0357
 8699,-0.00309247,0.00014466,0.00383355,0.00625473,0.00108182,0.0005664
 9,0.01192665,0.00731493,0.00348700,0.00807232,-0.33066123,0.01510691,-
 0.01638507,0.01120819,-0.02223755,-0.01498438,0.01178361,-0.00380463,-
 0.00061379,0.00127675,0.00085812,0.00048918,-0.00072513,0.00122782,0.0
 2880610,-0.00805174,0.00031447,-0.05729350,-0.12932399,-0.00656582,-0.
 02263330,0.67313877,0.03620413,-0.01960398,0.01861140,0.00288930,-0.00
 042831,-0.01109765,-0.02636588,-0.01518653,-0.00569384,0.01652682,0.01
 278073,0.00250149,-0.00082517,0.02532043,-0.05107687,0.00180908,0.0123
 2030,-0.01550721,-0.00277031,-0.00028072,-0.00277719,0.00161849,-0.000
 64012,-0.00249696,-0.00123187,0.00015584,-0.00154843,0.00082720,0.0014
 5328,-0.00109073,-0.01250975,-0.01169492,-0.07144901,-0.00124651,-0.00
 105802,0.29004948,-0.01873505,-0.01633350,-0.03566010,0.00181011,-0.00
 055182,0.00814337,-0.00570531,-0.00411361,0.00075910,0.00312866,0.0016
 4429,0.00164157,-0.00390596,0.00077297,-0.01040568,-0.09041389,-0.1578
 7386,-0.07965848,0.00332802,0.00128190,0.01641768,-0.00117361,0.001581
 00,0.00105212,0.00124408,-0.00035084,0.00023847,-0.00093231,-0.0007360
 9,0.00284102,-0.00813024,0.00416247,-0.03858681,-0.04287694,0.01441601
 ,-0.02168440,0.16055902,-0.01135858,-0.01458184,0.01820024,0.00081434,
 0.00322059,-0.00505368,-0.00409582,-0.00128986,-0.00084080,0.00031159,
 0.00039514,0.00044423,0.00761979,0.00110457,0.03616982,-0.13966976,-0.
 33946656,-0.13900054,0.00169834,-0.00114381,0.00424680,0.00073014,-0.0
 0118745,-0.00163913,-0.00058549,0.00044319,-0.00063765,-0.00094405,0.0
 0308733,-0.01431136,-0.00214833,0.00662850,-0.01767236,-0.00979992,-0.
 08997500,-0.00608757,0.15571723,0.43165239,0.01175659,-0.00043537,-0.0
 1936015,0.00760071,-0.00125425,-0.01639532,-0.00155630,-0.00175816,0.0
 0200964,-0.00085177,-0.00073995,0.00118377,-0.00538217,0.00057630,-0.0
 1304926,-0.09015614,-0.17940277,-0.11624800,-0.00300689,0.00112603,-0.
 00376790,0.00128804,-0.00238080,-0.00040588,-0.00356454,0.00126359,-0.
 00326809,-0.00205482,0.00188724,-0.00431376,-0.01208750,0.00296866,-0.
 01559729,-0.05660267,0.05135331,-0.14657166,0.15364274,0.12700522,0.33
 520955,0.00186818,-0.00168352,0.00004037,-0.00001255,0.00015713,0.0000
 5556,-0.00158064,0.00890612,-0.00032198,-0.00081854,0.02195859,-0.0067
 8127,-0.00485789,-0.00197867,-0.00167456,0.00034233,-0.00001254,0.0002
 3061,0.00016934,0.00019707,0.00013190,-0.00002572,-0.00007517,-0.00009
 597,0.00000748,-0.00000408,0.00002975,-0.00052190,0.00058331,-0.000048
 07,-0.05270294,0.02970282,-0.00576902,0.00092715,-0.03293203,0.0067588
 6,0.00180343,0.00171052,0.00097470,0.05540227,0.00089863,0.00062635,0.
 00007393,-0.00003948,0.00019764,-0.00004970,0.00050239,-0.00140233,-0.
 00009347,0.00028495,-0.00975420,0.00288303,-0.00248937,0.00051308,-0.0
 0033685,0.00036593,0.00024004,-0.00000914,-0.00006366,0.00027059,0.000
 09235,0.00007276,-0.00008181,-0.00009906,-0.00001303,-0.00000880,-0.00
 000330,-0.00082039,0.00032613,0.00000155,0.02617808,-0.30534333,0.0512
 8402,0.00126889,-0.01697457,0.00294959,0.00038385,0.00111281,-0.000209
 04,-0.02652954,0.33027840,-0.00006280,0.00071909,0.00130745,0.00001444
 ,-0.00025173,-0.00026818,-0.00192736,0.03024441,-0.00382800,0.00022393
 ,-0.01862616,0.00419793,-0.00139399,-0.00071869,0.00073932,0.00021196,
 0.00002124,0.00002582,-0.00000698,-0.00011892,-0.00007326,-0.00018294,
 0.00006933,0.00005934,0.00002296,0.00003898,-0.00002830,0.00036191,0.0
 0020340,0.00007740,-0.00393494,0.05302085,-0.05681922,-0.00105473,-0.0
 0729465,-0.00185281,0.00125941,-0.00082323,0.00057435,0.00646912,-0.05
 648391,0.05588817\\-0.00040667,0.00389349,-0.00051802,0.00001587,0.000
 66482,-0.00000003,0.00000001,0.00039968,-0.00000019,-0.00000006,0.0000
 0003,0.00000009,0.,-0.00000005,0.00000002,-0.00000007,-0.00000018,-0.0
 0000007,0.,-0.00000002,0.00000003,-0.00000008,-0.00000005,0.00000004,-
 0.00000004,-0.00000011,0.00000002,0.00000001,0.00000002,0.00000001,0.0
 0000006,-0.00000011,0.00000009,0.00000004,-0.00000001,-0.00000009,0.00
 000011,0.00000023,0.00000021,0.,0.,0.00000002\\\@


 LIFE IS A CONTINUAL STRUGGLE AGAINST THE TENDENCY TO PRODUCE ENTROPY.
 Job cpu time:  0 days  0 hours  9 minutes  8.9 seconds.
 File lengths (MBytes):  RWF=   1312 Int=      0 D2E=      0 Chk=     32 Scr=     32
 Normal termination of Gaussian 09 at Fri Apr 27 10:58:35 2018.
