 Entering Gaussian System, Link 0=g09
 Input=OH-mid-field-rev.gjf
 Output=OH-mid-field-rev.log
 Initial command:
 /share/home/zxchen/g09/l1.exe /scratch/zxchen/Gau-24982.inp -scrdir=/scratch/zxchen/
 Entering Link 1 = /share/home/zxchen/g09/l1.exe PID=     24983.
  
 Copyright (c) 1988,1990,1992,1993,1995,1998,2003,2009,2010,
            Gaussian, Inc.  All Rights Reserved.
  
 This is part of the Gaussian(R) 09 program.  It is based on
 the Gaussian(R) 03 system (copyright 2003, Gaussian, Inc.),
 the Gaussian(R) 98 system (copyright 1998, Gaussian, Inc.),
 the Gaussian(R) 94 system (copyright 1995, Gaussian, Inc.),
 the Gaussian 92(TM) system (copyright 1992, Gaussian, Inc.),
 the Gaussian 90(TM) system (copyright 1990, Gaussian, Inc.),
 the Gaussian 88(TM) system (copyright 1988, Gaussian, Inc.),
 the Gaussian 86(TM) system (copyright 1986, Carnegie Mellon
 University), and the Gaussian 82(TM) system (copyright 1983,
 Carnegie Mellon University). Gaussian is a federally registered
 trademark of Gaussian, Inc.
  
 This software contains proprietary and confidential information,
 including trade secrets, belonging to Gaussian, Inc.
  
 This software is provided under written license and may be
 used, copied, transmitted, or stored only in accord with that
 written license.
  
 The following legend is applicable only to US Government
 contracts under FAR:
  
                    RESTRICTED RIGHTS LEGEND
  
 Use, reproduction and disclosure by the US Government is
 subject to restrictions as set forth in subparagraphs (a)
 and (c) of the Commercial Computer Software - Restricted
 Rights clause in FAR 52.227-19.
  
 Gaussian, Inc.
 340 Quinnipiac St., Bldg. 40, Wallingford CT 06492
  
  
 ---------------------------------------------------------------
 Warning -- This program may not be used in any manner that
 competes with the business of Gaussian, Inc. or will provide
 assistance to any competitor of Gaussian, Inc.  The licensee
 of this program is prohibited from giving any competitor of
 Gaussian, Inc. access to this program.  By using this program,
 the user acknowledges that Gaussian, Inc. is engaged in the
 business of creating and licensing software in the field of
 computational chemistry and represents and warrants to the
 licensee that it is not a competitor of Gaussian, Inc. and that
 it will not use this program in any manner prohibited above.
 ---------------------------------------------------------------
  

 Cite this work as:
 Gaussian 09, Revision B.01,
 M. J. Frisch, G. W. Trucks, H. B. Schlegel, G. E. Scuseria, 
 M. A. Robb, J. R. Cheeseman, G. Scalmani, V. Barone, B. Mennucci, 
 G. A. Petersson, H. Nakatsuji, M. Caricato, X. Li, H. P. Hratchian, 
 A. F. Izmaylov, J. Bloino, G. Zheng, J. L. Sonnenberg, M. Hada, 
 M. Ehara, K. Toyota, R. Fukuda, J. Hasegawa, M. Ishida, T. Nakajima, 
 Y. Honda, O. Kitao, H. Nakai, T. Vreven, J. A. Montgomery, Jr., 
 J. E. Peralta, F. Ogliaro, M. Bearpark, J. J. Heyd, E. Brothers, 
 K. N. Kudin, V. N. Staroverov, T. Keith, R. Kobayashi, J. Normand, 
 K. Raghavachari, A. Rendell, J. C. Burant, S. S. Iyengar, J. Tomasi, 
 M. Cossi, N. Rega, J. M. Millam, M. Klene, J. E. Knox, J. B. Cross, 
 V. Bakken, C. Adamo, J. Jaramillo, R. Gomperts, R. E. Stratmann, 
 O. Yazyev, A. J. Austin, R. Cammi, C. Pomelli, J. W. Ochterski, 
 R. L. Martin, K. Morokuma, V. G. Zakrzewski, G. A. Voth, 
 P. Salvador, J. J. Dannenberg, S. Dapprich, A. D. Daniels, 
 O. Farkas, J. B. Foresman, J. V. Ortiz, J. Cioslowski, 
 and D. J. Fox, Gaussian, Inc., Wallingford CT, 2010.
 
 ******************************************
 Gaussian 09:  EM64L-G09RevB.01 12-Aug-2010
                18-May-2018 
 ******************************************
 %chk=OH-mid-50-2.chk
 %nprocshared=24
 Will use up to   24 processors via shared memory.
 ----------------------------------------------------------------------
 # field=z-50 nosymm opt=(ts,noeigen,calcfc,z-matrix,tight) freq b3lyp/
 6-31++g(d,p)
 ----------------------------------------------------------------------
 1/5=1,7=10,10=4,11=1,14=-1,18=40,26=3,38=1/1,3;
 2/12=2,15=1,17=6,18=5,29=3,40=1/2;
 3/5=1,6=6,7=1111,11=2,14=3,15=-50,16=1,25=1,30=1,71=2,74=-5/1,2,3;
 4//1;
 5/5=2,38=5/2;
 8/6=4,10=90,11=11/1;
 11/6=1,8=1,9=11,15=111,16=1,31=1/1,2,10;
 10/6=1,7=6,13=1,31=1/2;
 6/7=2,8=2,9=2,10=2,28=1/1;
 7/10=1,18=20,25=1,30=1/1,2,3,16;
 1/5=1,7=10,10=4,11=1,14=-1,18=40/3(2);
 2/15=1,29=3/2;
 99//99;
 2/15=1,29=3/2;
 3/5=1,6=6,7=1111,11=2,14=3,15=-50,16=1,25=1,30=1,71=1,74=-5/1,2,3;
 4/5=5,16=3/1;
 5/5=2,38=5/2;
 7/30=1/1,2,3,16;
 1/5=1,7=10,11=1,14=-1,18=40/3(-5);
 2/15=1,29=3/2;
 6/7=2,8=2,9=2,10=2,19=2,28=1/1;
 99/9=1/99;
 -----------
 OH-BACK-MID
 -----------
 Symbolic Z-matrix:
 Charge = -1 Multiplicity = 1
 C
 O                    1    B1
 C                    1    B2       2    A1
 C                    1    B3       3    A2       2    D1       0
 H                    2    B4       1    A3       3    D2       0
 H                    1    B5       3    A4       4    D3       0
 H                    3    B6       1    A5       4    D4       0
 H                    3    B7       1    A6       4    D5       0
 H                    4    B8       1    A7       3    D6       0
 H                    4    B9       1    A8       3    D7       0
 H                    4    B10      1    A9       3    D8       0
 O                    3    B11      1    A10      4    D9       0
       Variables:
  B1                    2.24655                  
  B2                    1.48661                  
  B3                    1.49984                  
  B4                    0.9691                   
  B5                    1.08178                  
  B6                    1.11079                  
  B7                    1.11245                  
  B8                    1.09509                  
  B9                    1.09667                  
  B10                   1.09504                  
  B11                   1.38309                  
  A1                  114.34824                  
  A2                  119.6899                   
  A3                  102.95602                  
  A4                  114.80582                  
  A5                  112.30009                  
  A6                  111.92739                  
  A7                  109.89994                  
  A8                  112.273                    
  A9                  107.71057                  
  A10                  94.45806                  
  D1                 -110.07747                  
  D2                   33.57794                  
  D3                 -149.99309                  
  D4                 -162.52135                  
  D5                  -41.98353                  
  D6                  -12.63974                  
  D7                 -133.56409                  
  D8                  107.25134                  
  D9                   77.57658                  
 

 GradGradGradGradGradGradGradGradGradGradGradGradGradGradGradGradGradGrad
 Berny optimization.
 Initialization pass.
                       ----------------------------
                       !    Initial Parameters    !
                       ! (Angstroms and Degrees)  !
 ----------------------                            ----------------------
 !      Name          Value   Derivative information (Atomic Units)     !
 ------------------------------------------------------------------------
 !       B1          2.2465   calculate D2E/DX2 analytically            !
 !       B2          1.4866   calculate D2E/DX2 analytically            !
 !       B3          1.4998   calculate D2E/DX2 analytically            !
 !       B4          0.9691   calculate D2E/DX2 analytically            !
 !       B5          1.0818   calculate D2E/DX2 analytically            !
 !       B6          1.1108   calculate D2E/DX2 analytically            !
 !       B7          1.1124   calculate D2E/DX2 analytically            !
 !       B8          1.0951   calculate D2E/DX2 analytically            !
 !       B9          1.0967   calculate D2E/DX2 analytically            !
 !       B10         1.095    calculate D2E/DX2 analytically            !
 !       B11         1.3831   calculate D2E/DX2 analytically            !
 !       A1        114.3482   calculate D2E/DX2 analytically            !
 !       A2        119.6899   calculate D2E/DX2 analytically            !
 !       A3        102.956    calculate D2E/DX2 analytically            !
 !       A4        114.8058   calculate D2E/DX2 analytically            !
 !       A5        112.3001   calculate D2E/DX2 analytically            !
 !       A6        111.9274   calculate D2E/DX2 analytically            !
 !       A7        109.8999   calculate D2E/DX2 analytically            !
 !       A8        112.273    calculate D2E/DX2 analytically            !
 !       A9        107.7106   calculate D2E/DX2 analytically            !
 !       A10        94.4581   calculate D2E/DX2 analytically            !
 !       D1       -110.0775   calculate D2E/DX2 analytically            !
 !       D2         33.5779   calculate D2E/DX2 analytically            !
 !       D3       -149.9931   calculate D2E/DX2 analytically            !
 !       D4       -162.5213   calculate D2E/DX2 analytically            !
 !       D5        -41.9835   calculate D2E/DX2 analytically            !
 !       D6        -12.6397   calculate D2E/DX2 analytically            !
 !       D7       -133.5641   calculate D2E/DX2 analytically            !
 !       D8        107.2513   calculate D2E/DX2 analytically            !
 !       D9         77.5766   calculate D2E/DX2 analytically            !
 ------------------------------------------------------------------------
 Trust Radius=3.00D-01 FncErr=1.00D-07 GrdErr=1.00D-06
 Number of steps in this run=     40 maximum allowed number of steps=    100.
 Search for a saddle point of order  1.
 GradGradGradGradGradGradGradGradGradGradGradGradGradGradGradGradGradGrad

 ---------------------------------------------------------------------------------------------------
                            Z-MATRIX (ANGSTROMS AND DEGREES)
   CD    Cent   Atom    N1       Length/X        N2       Alpha/Y        N3        Beta/Z          J
 ---------------------------------------------------------------------------------------------------
      1      1  C 
      2      2  O        1   2.246546(     1)
      3      3  C        1   1.486608(     2)      2  114.348(    12)
      4      4  C        1   1.499840(     3)      3  119.690(    13)      2 -110.077(    22)      0
      5      5  H        2   0.969103(     4)      1  102.956(    14)      3   33.578(    23)      0
      6      6  H        1   1.081775(     5)      3  114.806(    15)      4 -149.993(    24)      0
      7      7  H        3   1.110794(     6)      1  112.300(    16)      4 -162.521(    25)      0
      8      8  H        3   1.112446(     7)      1  111.927(    17)      4  -41.984(    26)      0
      9      9  H        4   1.095088(     8)      1  109.900(    18)      3  -12.640(    27)      0
     10     10  H        4   1.096671(     9)      1  112.273(    19)      3 -133.564(    28)      0
     11     11  H        4   1.095041(    10)      1  107.711(    20)      3  107.251(    29)      0
     12     12  O        3   1.383094(    11)      1   94.458(    21)      4   77.577(    30)      0
 ---------------------------------------------------------------------------------------------------
                         Z-Matrix orientation:                         
 ---------------------------------------------------------------------
 Center     Atomic      Atomic             Coordinates (Angstroms)
 Number     Number       Type             X           Y           Z
 ---------------------------------------------------------------------
      1          6           0        0.000000    0.000000    0.000000
      2          8           0        0.000000    0.000000    2.246546
      3          6           0        1.354384    0.000000   -0.612901
      4          6           0       -0.861213   -1.223759   -0.101228
      5          1           0        0.786839    0.522338    2.463822
      6          1           0       -0.483295    0.967256    0.032850
      7          1           0        1.996660    0.814729   -0.215962
      8          1           0        1.891591   -0.957458   -0.433403
      9          1           0       -0.437721   -1.917954   -0.834690
     10          1           0       -1.889149   -0.985101   -0.399687
     11          1           0       -0.889887   -1.693637    0.887462
     12          8           0        0.888895    0.183659   -1.902296
 ---------------------------------------------------------------------
                    Distance matrix (angstroms):
                    1          2          3          4          5
     1  C    0.000000
     2  O    2.246546   0.000000
     3  C    1.486608   3.163984   0.000000
     4  C    1.499840   2.784119   2.582298   0.000000
     5  H    2.638631   0.969103   3.171935   3.513461   0.000000
     6  H    1.081775   2.463657   2.174774   2.227408   2.778636
     7  H    2.167273   3.273283   1.110794   3.512269   2.954725
     8  H    2.163950   3.417158   1.112446   2.785532   3.435722
     9  H    2.137020   3.655703   2.634270   1.095088   4.281910
    10  H    2.167731   3.397331   3.396526   1.096671   4.199163
    11  H    2.109003   2.346788   3.186887   1.095041   3.194819
    12  O    2.107746   4.246970   1.383094   2.878810   4.380423
                    6          7          8          9         10
     6  H    0.000000
     7  H    2.497068   0.000000
     8  H    3.092248   1.788566   0.000000
     9  H    3.013161   3.711683   2.551329   0.000000
    10  H    2.444425   4.286333   3.780991   1.779350   0.000000
    11  H    2.824187   3.980151   3.165954   1.794597   1.776879
    12  O    2.498343   2.114028   2.113101   2.704897   3.367694
                   11         12
    11  H    0.000000
    12  O    3.804084   0.000000
 Symmetry turned off by external request.
 Stoichiometry    C3H7O2(1-)
 Framework group  C1[X(C3H7O2)]
 Deg. of freedom    30
 Full point group                 C1      NOp   1
 Rotational constants (GHZ):      7.7484082      2.9334186      2.3175352
 Standard basis: 6-31++G(d,p) (6D, 7F)
 The following finite field(s) will be applied:
 An electric field of              0.0000  0.0000 -0.0050
 Integral buffers will be    131072 words long.
 Raffenetti 2 integral format.
 Two-electron integral symmetry is turned off.
   137 basis functions,   216 primitive gaussians,   137 cartesian basis functions
    21 alpha electrons       21 beta electrons
       nuclear repulsion energy       171.8981641395 Hartrees.
 NAtoms=   12 NActive=   12 NUniq=   12 SFac= 1.00D+00 NAtFMM=   50 NAOKFM=F Big=F
 One-electron integrals computed using PRISM.
 PrsmSu:  requested number of processors reduced to:  10 ShMem   1 Linda.
 NBasis=   137 RedAO= T  NBF=   137
 NBsUse=   137 1.00D-06 NBFU=   137
 The nuclear repulsion energy is now       171.8984512072 hartrees.
 Harris functional with IExCor=  402 diagonalized for initial guess.
 ExpMin= 3.60D-02 ExpMax= 5.48D+03 ExpMxC= 8.25D+02 IAcc=3 IRadAn=         0 AccDes= 0.00D+00
 HarFok:  IExCor=  402 AccDes= 0.00D+00 IRadAn=         0 IDoV= 1
 ScaDFX=  1.000000  1.000000  1.000000  1.000000
 FoFCou: FMM=F IPFlag=           0 FMFlag=      100000 FMFlg1=           0
         NFxFlg=           0 DoJE=T BraDBF=F KetDBF=T FulRan=T
         Omega=  0.000000  0.000000  1.000000  0.000000  0.000000 ICntrl=     500 IOpCl=  0
         NMat0=    1 NMatS0=    1 NMatT0=    0 NMatD0=    1 NMtDS0=    0 NMtDT0=    0
         I1Cent=           4 NGrid=           0.
 Symmetry not used in FoFCou.
 Requested convergence on RMS density matrix=1.00D-08 within 128 cycles.
 Requested convergence on MAX density matrix=1.00D-06.
 Requested convergence on             energy=1.00D-06.
 No special actions if energy rises.
 SCF Done:  E(RB3LYP) =  -268.939414993     A.U. after   16 cycles
             Convg  =    0.6116D-08             -V/T =  2.0100
 Range of M.O.s used for correlation:     1   137
 NBasis=   137 NAE=    21 NBE=    21 NFC=     0 NFV=     0
 NROrb=    137 NOA=    21 NOB=    21 NVA=   116 NVB=   116

 **** Warning!!: The largest alpha MO coefficient is  0.32876665D+02

 PrsmSu:  requested number of processors reduced to:  10 ShMem   1 Linda.
 PrsmSu:  requested number of processors reduced to:  18 ShMem   1 Linda.
 Symmetrizing basis deriv contribution to polar:
 IMax=3 JMax=2 DiffMx= 0.00D+00
 G2DrvN: will do     4 centers at a time, making    4 passes doing MaxLOS=2.
 Estimated number of processors is:   15
 Calling FoFCou, ICntrl=  3107 FMM=F I1Cent=   0 AccDes= 0.00D+00.
 CoulSu:  requested number of processors reduced to:  15 ShMem   1 Linda.
 Calling FoFCou, ICntrl=  3107 FMM=F I1Cent=   0 AccDes= 0.00D+00.
 CoulSu:  requested number of processors reduced to:  15 ShMem   1 Linda.
 Calling FoFCou, ICntrl=  3107 FMM=F I1Cent=   0 AccDes= 0.00D+00.
 CoulSu:  requested number of processors reduced to:  15 ShMem   1 Linda.
 Calling FoFCou, ICntrl=  3107 FMM=F I1Cent=   0 AccDes= 0.00D+00.
 CoulSu:  requested number of processors reduced to:  15 ShMem   1 Linda.
 FoFDir/FoFCou used for L=0 through L=2.
 End of G2Drv Frequency-dependent properties file   721 does not exist.
 End of G2Drv Frequency-dependent properties file   722 does not exist.
          IDoAtm=111111111111
          Differentiating once with respect to nuclear coordinates.
 PrRfSu:  requested number of processors reduced to:  15 ShMem   1 Linda.
 CalDSu:  requested number of processors reduced to:  19 ShMem   1 Linda.
          There are    39 degrees of freedom in the 1st order CPHF.  IDoFFX=5.
     33 vectors produced by pass  0 Test12= 6.25D-11 2.56D-07 XBig12= 2.12D-01 1.64D-01.
 AX will form    33 AO Fock derivatives at one time.
 PrRfSu:  requested number of processors reduced to:  16 ShMem   1 Linda.
 CalDSu:  requested number of processors reduced to:  20 ShMem   1 Linda.
     33 vectors produced by pass  1 Test12= 6.25D-11 2.56D-07 XBig12= 8.36D-02 6.10D-02.
 PrRfSu:  requested number of processors reduced to:  16 ShMem   1 Linda.
 CalDSu:  requested number of processors reduced to:  20 ShMem   1 Linda.
     33 vectors produced by pass  2 Test12= 6.25D-11 2.56D-07 XBig12= 6.22D-04 3.97D-03.
 PrRfSu:  requested number of processors reduced to:  16 ShMem   1 Linda.
 CalDSu:  requested number of processors reduced to:  20 ShMem   1 Linda.
     33 vectors produced by pass  3 Test12= 6.25D-11 2.56D-07 XBig12= 2.39D-06 2.68D-04.
 PrRfSu:  requested number of processors reduced to:  16 ShMem   1 Linda.
 CalDSu:  requested number of processors reduced to:  20 ShMem   1 Linda.
     21 vectors produced by pass  4 Test12= 6.25D-11 2.56D-07 XBig12= 6.22D-09 1.01D-05.
 PrRfSu:  requested number of processors reduced to:  17 ShMem   1 Linda.
 CalDSu:  requested number of processors reduced to:  22 ShMem   1 Linda.
      4 vectors produced by pass  5 Test12= 6.25D-11 2.56D-07 XBig12= 1.02D-11 5.94D-07.
 Inverted reduced A of dimension   157 with in-core refinement.
 End of Minotr Frequency-dependent properties file   721 does not exist.
 End of Minotr Frequency-dependent properties file   722 does not exist.

 **********************************************************************

            Population analysis using the SCF density.

 **********************************************************************

 Alpha  occ. eigenvalues --  -18.91732 -18.90901 -10.08673 -10.05852 -10.03464
 Alpha  occ. eigenvalues --   -0.77372  -0.70131  -0.60403  -0.49574  -0.40831
 Alpha  occ. eigenvalues --   -0.31231  -0.27672  -0.25929  -0.22506  -0.20663
 Alpha  occ. eigenvalues --   -0.19279  -0.18326  -0.08972  -0.05174  -0.04869
 Alpha  occ. eigenvalues --   -0.03971
 Alpha virt. eigenvalues --    0.10583   0.12047   0.12762   0.13024   0.15243
 Alpha virt. eigenvalues --    0.15973   0.16455   0.18433   0.19921   0.21532
 Alpha virt. eigenvalues --    0.23082   0.23433   0.25008   0.25640   0.26194
 Alpha virt. eigenvalues --    0.27035   0.27376   0.27938   0.29563   0.31438
 Alpha virt. eigenvalues --    0.33597   0.35785   0.37787   0.39400   0.39639
 Alpha virt. eigenvalues --    0.40927   0.41178   0.42055   0.44408   0.46076
 Alpha virt. eigenvalues --    0.46317   0.47535   0.48544   0.50629   0.52848
 Alpha virt. eigenvalues --    0.53952   0.56369   0.57954   0.78538   0.82897
 Alpha virt. eigenvalues --    0.87680   0.89313   0.90316   0.93221   0.94972
 Alpha virt. eigenvalues --    0.98066   1.03951   1.10285   1.11418   1.12144
 Alpha virt. eigenvalues --    1.16165   1.20553   1.22508   1.24739   1.27840
 Alpha virt. eigenvalues --    1.35257   1.40170   1.41125   1.45791   1.48669
 Alpha virt. eigenvalues --    1.50601   1.52506   1.56211   1.58159   1.61368
 Alpha virt. eigenvalues --    1.68800   1.78790   1.81902   1.84200   1.85272
 Alpha virt. eigenvalues --    1.89196   1.97358   2.01749   2.04444   2.06109
 Alpha virt. eigenvalues --    2.07664   2.13759   2.15104   2.18951   2.19666
 Alpha virt. eigenvalues --    2.25603   2.28920   2.29519   2.32187   2.34220
 Alpha virt. eigenvalues --    2.40196   2.49335   2.54847   2.60232   2.60582
 Alpha virt. eigenvalues --    2.65586   2.67595   2.77281   2.79262   2.80905
 Alpha virt. eigenvalues --    2.86550   2.89254   2.91476   2.92928   3.00122
 Alpha virt. eigenvalues --    3.05151   3.07860   3.08996   3.16099   3.40039
 Alpha virt. eigenvalues --    3.44815   3.55090   3.59359   3.62801   3.67318
 Alpha virt. eigenvalues --    3.69004   4.38687   4.41360   4.51646   4.71080
 Alpha virt. eigenvalues --    4.81696
          Condensed to atoms (all electrons):
              1          2          3          4          5          6
     1  C    8.265847  -0.100294  -0.489859  -1.689603   0.010743   0.428909
     2  O   -0.100294   8.643713   0.053825  -0.008141   0.181318  -0.022483
     3  C   -0.489859   0.053825   5.416264   0.170367  -0.005997  -0.012160
     4  C   -1.689603  -0.008141   0.170367   6.881867   0.007391  -0.129219
     5  H    0.010743   0.181318  -0.005997   0.007391   0.544869  -0.002813
     6  H    0.428909  -0.022483  -0.012160  -0.129219  -0.002813   0.601659
     7  H   -0.210157   0.005684   0.426771   0.142138  -0.001442  -0.073005
     8  H    0.030850   0.008444   0.405207  -0.146364   0.000521   0.055712
     9  H   -0.190369   0.004793   0.022138   0.511938  -0.000293  -0.015376
    10  H    0.030142  -0.001217  -0.005441   0.334121  -0.000085   0.005360
    11  H   -0.181409   0.019826   0.049104   0.476779  -0.006554  -0.013068
    12  O   -0.364577   0.021977   0.320369   0.142975  -0.001320  -0.003910
              7          8          9         10         11         12
     1  C   -0.210157   0.030850  -0.190369   0.030142  -0.181409  -0.364577
     2  O    0.005684   0.008444   0.004793  -0.001217   0.019826   0.021977
     3  C    0.426771   0.405207   0.022138  -0.005441   0.049104   0.320369
     4  C    0.142138  -0.146364   0.511938   0.334121   0.476779   0.142975
     5  H   -0.001442   0.000521  -0.000293  -0.000085  -0.006554  -0.001320
     6  H   -0.073005   0.055712  -0.015376   0.005360  -0.013068  -0.003910
     7  H    0.889076  -0.206338   0.018812  -0.005948   0.011242  -0.074399
     8  H   -0.206338   0.934965  -0.038130   0.010216  -0.016364  -0.104926
     9  H    0.018812  -0.038130   0.566331  -0.051578  -0.005495   0.018186
    10  H   -0.005948   0.010216  -0.051578   0.625135  -0.035577  -0.014981
    11  H    0.011242  -0.016364  -0.005495  -0.035577   0.486054   0.015477
    12  O   -0.074399  -0.104926   0.018186  -0.014981   0.015477   8.719335
 Mulliken atomic charges:
              1
     1  C    0.459778
     2  O   -0.807444
     3  C   -0.350588
     4  C   -0.694250
     5  H    0.273662
     6  H    0.180396
     7  H    0.077567
     8  H    0.066207
     9  H    0.159042
    10  H    0.109853
    11  H    0.199984
    12  O   -0.674207
 Sum of Mulliken atomic charges =  -1.00000
 Mulliken charges with hydrogens summed into heavy atoms:
              1
     1  C    0.640173
     2  O   -0.533782
     3  C   -0.206814
     4  C   -0.225371
    12  O   -0.674207
 Sum of Mulliken charges with hydrogens summed into heavy atoms =  -1.00000
 APT atomic charges:
              1
     1  C    0.203200
     2  O   -1.054961
     3  C   -0.740371
     4  C   -1.294793
     5  H    0.483506
     6  H    0.355719
     7  H    0.326433
     8  H    0.305254
     9  H    0.381287
    10  H    0.364558
    11  H    0.409905
    12  O   -0.739736
 Sum of APT charges=  -1.00000
 APT Atomic charges with hydrogens summed into heavy atoms:
              1
     1  C    0.558919
     2  O   -0.571455
     3  C   -0.108684
     4  C   -0.139043
     5  H    0.000000
     6  H    0.000000
     7  H    0.000000
     8  H    0.000000
     9  H    0.000000
    10  H    0.000000
    11  H    0.000000
    12  O   -0.739736
 Sum of APT charges=  -1.00000
 Electronic spatial extent (au):  <R**2>=            580.3179
 Charge=             -1.0000 electrons
 Dipole moment (field-independent basis, Debye):
    X=             -1.6605    Y=              0.0998    Z=              0.9384  Tot=              1.9099
 Quadrupole moment (field-independent basis, Debye-Ang):
   XX=            -37.5173   YY=            -35.7577   ZZ=            -64.1242
   XY=              0.2042   XZ=              8.2567   YZ=              3.0857
 Traceless Quadrupole moment (field-independent basis, Debye-Ang):
   XX=              8.2824   YY=             10.0421   ZZ=            -18.3245
   XY=              0.2042   XZ=              8.2567   YZ=              3.0857
 Octapole moment (field-independent basis, Debye-Ang**2):
  XXX=            -31.7093  YYY=             25.2469  ZZZ=              0.9895  XYY=             -9.5549
  XXY=              9.0602  XXZ=              7.3794  XZZ=            -14.6980  YZZ=              9.3581
  YYZ=              2.0059  XYZ=              4.6744
 Hexadecapole moment (field-independent basis, Debye-Ang**3):
 XXXX=           -233.6487 YYYY=           -148.5256 ZZZZ=           -590.4158 XXXY=            -30.5145
 XXXZ=             51.4250 YYYX=            -31.2250 YYYZ=              1.5467 ZZZX=             94.3498
 ZZZY=             18.5798 XXYY=            -64.9327 XXZZ=           -122.4372 YYZZ=           -103.2406
 XXYZ=              2.1930 YYXZ=             15.4165 ZZXY=             -5.7179
 N-N= 1.718984512072D+02 E-N=-9.811815919208D+02  KE= 2.662670205548D+02
  Exact polarizability:   0.000   0.000   0.000   0.000   0.000   0.000
 Approx polarizability:  80.713   1.756  72.502 -16.265  -2.491 174.711
 PrsmSu:  requested number of processors reduced to:  10 ShMem   1 Linda.
 PrsmSu:  requested number of processors reduced to:  11 ShMem   1 Linda.
 Calling FoFJK, ICntrl=    100147 FMM=F ISym2X=0 I1Cent= 0 IOpClX= 0 NMat=1 NMatS=1 NMatT=0.
 CoulSu:  requested number of processors reduced to:  11 ShMem   1 Linda.
 -------------------------------------------------------------------
 Center     Atomic                   Forces (Hartrees/Bohr)
 Number     Number              X              Y              Z
 -------------------------------------------------------------------
      1        6          -0.000783462    0.000055079    0.026070102
      2        8           0.000783333   -0.000078060   -0.031070241
      3        6           0.000000145    0.000023025   -0.000000327
      4        6          -0.000000210   -0.000000407    0.000000336
      5        1           0.000000258    0.000000209    0.000000128
      6        1          -0.000000045    0.000000172    0.000000002
      7        1          -0.000000173   -0.000000168   -0.000000109
      8        1          -0.000000032   -0.000000001    0.000000006
      9        1           0.000000058   -0.000000019   -0.000000083
     10        1          -0.000000020    0.000000030   -0.000000023
     11        1           0.000000027    0.000000170   -0.000000259
     12        8           0.000000122   -0.000000029    0.000000470
 -------------------------------------------------------------------
 Cartesian Forces:  Max     0.031070241 RMS     0.006762329
 -----------------------------------------------------------------------------------------------
                       Internal Coordinate Forces (Hartree/Bohr or radian)
  Cent   Atom   N1       Length/X         N2         Alpha/Y        N3         Beta/Z          J
 -----------------------------------------------------------------------------------------------
      1  C 
      2  O        1  -0.031070(     1)
      3  C        1   0.000000(     2)      2   0.000000(    12)
      4  C        1   0.000000(     3)      3   0.000000(    13)      2   0.000000(    22)     0
      5  H        2   0.000000(     4)      1   0.000000(    14)      3   0.000000(    23)     0
      6  H        1   0.000000(     5)      3   0.000000(    15)      4   0.000000(    24)     0
      7  H        3   0.000000(     6)      1   0.000000(    16)      4   0.000000(    25)     0
      8  H        3   0.000000(     7)      1   0.000000(    17)      4   0.000000(    26)     0
      9  H        4   0.000000(     8)      1   0.000000(    18)      3   0.000000(    27)     0
     10  H        4   0.000000(     9)      1   0.000000(    19)      3   0.000000(    28)     0
     11  H        4   0.000000(    10)      1   0.000000(    20)      3   0.000000(    29)     0
     12  O        3   0.000000(    11)      1   0.000000(    21)      4   0.000000(    30)     0
 -----------------------------------------------------------------------------------------------
 Internal  Forces:  Max     0.031070113 RMS     0.005672601

 GradGradGradGradGradGradGradGradGradGradGradGradGradGradGradGradGradGrad
 Berny optimization.
 Search for a saddle point.
 Step number   1 out of a maximum of   40
 All quantities printed in internal units (Hartrees-Bohrs-Radians)
 Swaping is turned off.
 Second derivative matrix not updated -- analytic derivatives used.
 ITU=  0
     Eigenvalues ---   -0.02544  -0.00231   0.00291   0.02151   0.04083
     Eigenvalues ---    0.05734   0.09460   0.10941   0.12118   0.12676
     Eigenvalues ---    0.13697   0.15726   0.20845   0.22373   0.25671
     Eigenvalues ---    0.28551   0.28675   0.29852   0.30701   0.33408
     Eigenvalues ---    0.34337   0.34626   0.34851   0.35077   0.37008
     Eigenvalues ---    0.37623   0.42122   0.44123   0.50838   0.51787
 Eigenvectors required to have negative eigenvalues:
                          B1        D3        A10       D5        D1
   1                    0.87914  -0.28741  -0.24877   0.14653   0.10186
                          A3        D9        A6        B2        A5
   1                    0.08655   0.07677   0.07565  -0.07179   0.07088
 RFO step:  Lambda0=1.741230455D-02 Lambda=-6.08795439D-03.
 Linear search not attempted -- option 19 set.
 Maximum step size (   0.300) exceeded in Quadratic search.
    -- Step size scaled by   0.290
 Variable       Old X    -DE/DX   Delta X   Delta X   Delta X     New X
                                 (Linear)    (Quad)   (Total)
    B1        4.24536  -0.03107   0.00000   0.10535   0.10535   4.35071
    B2        2.80928   0.00000   0.00000  -0.02303  -0.02303   2.78625
    B3        2.83429   0.00000   0.00000  -0.00461  -0.00461   2.82968
    B4        1.83134   0.00000   0.00000  -0.00030  -0.00030   1.83104
    B5        2.04426   0.00000   0.00000  -0.00292  -0.00292   2.04134
    B6        2.09910   0.00000   0.00000  -0.00536  -0.00536   2.09374
    B7        2.10222   0.00000   0.00000  -0.00516  -0.00516   2.09705
    B8        2.06942   0.00000   0.00000  -0.00033  -0.00033   2.06909
    B9        2.07241   0.00000   0.00000   0.00143   0.00143   2.07384
   B10        2.06933   0.00000   0.00000   0.00014   0.00014   2.06947
   B11        2.61367   0.00000   0.00000   0.01295   0.01295   2.62662
    A1        1.99575   0.00000   0.00000  -0.01615  -0.01615   1.97960
    A2        2.08898   0.00000   0.00000   0.01741   0.01741   2.10640
    A3        1.79692   0.00000   0.00000   0.04723   0.04723   1.84416
    A4        2.00374   0.00000   0.00000   0.01860   0.01860   2.02234
    A5        1.96001   0.00000   0.00000   0.02364   0.02364   1.98364
    A6        1.95350   0.00000   0.00000   0.01999   0.01999   1.97349
    A7        1.91812   0.00000   0.00000   0.01003   0.01003   1.92815
    A8        1.95953   0.00000   0.00000  -0.00382  -0.00382   1.95571
    A9        1.87990   0.00000   0.00000  -0.00860  -0.00860   1.87131
   A10        1.64860   0.00000   0.00000  -0.06346  -0.06346   1.58514
    D1       -1.92121   0.00000   0.00000   0.03859   0.03859  -1.88262
    D2        0.58605   0.00000   0.00000  -0.00849  -0.00849   0.57755
    D3       -2.61787   0.00000   0.00000  -0.09096  -0.09096  -2.70884
    D4       -2.83653   0.00000   0.00000   0.01035   0.01035  -2.82619
    D5       -0.73275   0.00000   0.00000   0.05758   0.05758  -0.67517
    D6       -0.22061   0.00000   0.00000   0.13628   0.13628  -0.08433
    D7       -2.33113   0.00000   0.00000   0.13553   0.13553  -2.19560
    D8        1.87189   0.00000   0.00000   0.13597   0.13597   2.00786
    D9        1.35397   0.00000   0.00000   0.03336   0.03336   1.38733
         Item               Value     Threshold  Converged?
 Maximum Force            0.031070     0.000015     NO 
 RMS     Force            0.005673     0.000010     NO 
 Maximum Displacement     0.136278     0.000060     NO 
 RMS     Displacement     0.054772     0.000040     NO 
 Predicted change in Energy= 2.926472D-03
 GradGradGradGradGradGradGradGradGradGradGradGradGradGradGradGradGradGrad

 ---------------------------------------------------------------------------------------------------
                            Z-MATRIX (ANGSTROMS AND DEGREES)
   CD    Cent   Atom    N1       Length/X        N2       Alpha/Y        N3        Beta/Z          J
 ---------------------------------------------------------------------------------------------------
      1      1  C 
      2      2  O        1   2.302296(     1)
      3      3  C        1   1.474422(     2)      2  113.423(    12)
      4      4  C        1   1.497402(     3)      3  120.688(    13)      2 -107.866(    22)      0
      5      5  H        2   0.968947(     4)      1  105.662(    14)      3   33.091(    23)      0
      6      6  H        1   1.080230(     5)      3  115.872(    15)      4 -155.205(    24)      0
      7      7  H        3   1.107958(     6)      1  113.654(    16)      4 -161.929(    25)      0
      8      8  H        3   1.109713(     7)      1  113.073(    17)      4  -38.684(    26)      0
      9      9  H        4   1.094916(     8)      1  110.475(    18)      3   -4.832(    27)      0
     10     10  H        4   1.097430(     9)      1  112.054(    19)      3 -125.799(    28)      0
     11     11  H        4   1.095117(    10)      1  107.218(    20)      3  115.042(    29)      0
     12     12  O        3   1.389949(    11)      1   90.822(    21)      4   79.488(    30)      0
 ---------------------------------------------------------------------------------------------------
                         Z-Matrix orientation:                         
 ---------------------------------------------------------------------
 Center     Atomic      Atomic             Coordinates (Angstroms)
 Number     Number       Type             X           Y           Z
 ---------------------------------------------------------------------
      1          6           0        0.000000    0.000000    0.000000
      2          8           0        0.000000    0.000000    2.302296
      3          6           0        1.352924    0.000000   -0.586103
      4          6           0       -0.858279   -1.225610   -0.058728
      5          1           0        0.781643    0.509377    2.563881
      6          1           0       -0.479135    0.964863    0.079783
      7          1           0        1.997599    0.821695   -0.216261
      8          1           0        1.896218   -0.954292   -0.426035
      9          1           0       -0.367571   -2.009064   -0.645453
     10          1           0       -1.839041   -1.020785   -0.506506
     11          1           0       -1.007353   -1.566620    0.971210
     12          8           0        0.823295    0.177901   -1.858817
 ---------------------------------------------------------------------
                    Distance matrix (angstroms):
                    1          2          3          4          5
     1  C    0.000000
     2  O    2.302296   0.000000
     3  C    1.474422   3.189554   0.000000
     4  C    1.497402   2.795210   2.582570   0.000000
     5  H    2.728354   0.968947   3.241639   3.546491   0.000000
     6  H    1.080230   2.469838   2.175041   2.227355   2.822724
     7  H    2.170796   3.317939   1.107958   3.517430   3.050455
     8  H    2.165138   3.456893   1.109713   2.792093   3.510584
     9  H    2.141975   3.586178   2.645745   1.094916   4.238285
    10  H    2.163475   3.509052   3.352161   1.097430   4.317020
    11  H    2.100549   2.289290   3.232712   1.095117   3.169680
    12  O    2.040751   4.245507   1.389949   2.835112   4.435298
                    6          7          8          9         10
     6  H    0.000000
     7  H    2.498470   0.000000
     8  H    3.095369   1.791204   0.000000
     9  H    3.063112   3.713682   2.507076   0.000000
    10  H    2.477071   4.266003   3.736718   1.777984   0.000000
    11  H    2.735336   4.017944   3.279934   1.794067   1.781372
    12  O    2.464509   2.119305   2.117992   2.770060   3.217705
                   11         12
    11  H    0.000000
    12  O    3.795217   0.000000
 Symmetry turned off by external request.
 Stoichiometry    C3H7O2(1-)
 Framework group  C1[X(C3H7O2)]
 Deg. of freedom    30
 Full point group                 C1      NOp   1
 Rotational constants (GHZ):      7.7613052      2.9262524      2.3190134
 Standard basis: 6-31++G(d,p) (6D, 7F)
 The following finite field(s) will be applied:
 An electric field of              0.0000  0.0000 -0.0050
 Integral buffers will be    131072 words long.
 Raffenetti 2 integral format.
 Two-electron integral symmetry is turned off.
   137 basis functions,   216 primitive gaussians,   137 cartesian basis functions
    21 alpha electrons       21 beta electrons
       nuclear repulsion energy       172.0360778580 Hartrees.
 NAtoms=   12 NActive=   12 NUniq=   12 SFac= 1.00D+00 NAtFMM=   50 NAOKFM=F Big=F
 One-electron integrals computed using PRISM.
 PrsmSu:  requested number of processors reduced to:  10 ShMem   1 Linda.
 NBasis=   137 RedAO= T  NBF=   137
 NBsUse=   137 1.00D-06 NBFU=   137
 The nuclear repulsion energy is now       172.0219099290 hartrees.
 Initial guess read from the read-write file.
 B after Tr=     0.000000    0.000000    0.000000
         Rot=    1.000000    0.000000    0.000000    0.000000 Ang=   0.00 deg.
 Harris functional with IExCor=  402 diagonalized for initial guess.
 ExpMin= 3.60D-02 ExpMax= 5.48D+03 ExpMxC= 8.25D+02 IAcc=3 IRadAn=         0 AccDes= 0.00D+00
 HarFok:  IExCor=  402 AccDes= 0.00D+00 IRadAn=         0 IDoV= 1
 ScaDFX=  1.000000  1.000000  1.000000  1.000000
 FoFCou: FMM=F IPFlag=           0 FMFlag=      100000 FMFlg1=           0
         NFxFlg=           0 DoJE=T BraDBF=F KetDBF=T FulRan=T
         Omega=  0.000000  0.000000  1.000000  0.000000  0.000000 ICntrl=     500 IOpCl=  0
         NMat0=    1 NMatS0=    1 NMatT0=    0 NMatD0=    1 NMtDS0=    0 NMtDT0=    0
         I1Cent=           4 NGrid=           0.
 Symmetry not used in FoFCou.
 Requested convergence on RMS density matrix=1.00D-08 within 128 cycles.
 Requested convergence on MAX density matrix=1.00D-06.
 Requested convergence on             energy=1.00D-06.
 No special actions if energy rises.
 SCF Done:  E(RB3LYP) =  -268.936472696     A.U. after   12 cycles
             Convg  =    0.5530D-08             -V/T =  2.0099
 PrsmSu:  requested number of processors reduced to:  10 ShMem   1 Linda.
 PrsmSu:  requested number of processors reduced to:  23 ShMem   1 Linda.
 Calling FoFJK, ICntrl=      2127 FMM=F ISym2X=0 I1Cent= 0 IOpClX= 0 NMat=1 NMatS=1 NMatT=0.
 CoulSu:  requested number of processors reduced to:  16 ShMem   1 Linda.
 -------------------------------------------------------------------
 Center     Atomic                   Forces (Hartrees/Bohr)
 Number     Number              X              Y              Z
 -------------------------------------------------------------------
      1        6          -0.000471125   -0.000754092    0.021947292
      2        8           0.000624933   -0.000038002   -0.025606764
      3        6           0.000267625    0.000318589   -0.001246686
      4        6          -0.000482235    0.000318786   -0.000246359
      5        1          -0.000024149   -0.000022150    0.000055158
      6        1          -0.000056827    0.000192948   -0.000225777
      7        1          -0.000069707    0.000217094    0.000078680
      8        1          -0.000085395   -0.000133934    0.000113845
      9        1           0.000237201   -0.000041596    0.000200921
     10        1           0.000069016    0.000081013   -0.000229888
     11        1          -0.000048963   -0.000048491   -0.000043263
     12        8           0.000039625   -0.000090165    0.000202843
 -------------------------------------------------------------------
 Cartesian Forces:  Max     0.025606764 RMS     0.005630045
 -----------------------------------------------------------------------------------------------
                       Internal Coordinate Forces (Hartree/Bohr or radian)
  Cent   Atom   N1       Length/X         N2         Alpha/Y        N3         Beta/Z          J
 -----------------------------------------------------------------------------------------------
      1  C 
      2  O        1  -0.025552(     1)
      3  C        1   0.000478(     2)      2   0.000082(    12)
      4  C        1  -0.000112(     3)      3   0.000120(    13)      2  -0.000093(    22)     0
      5  H        2  -0.000016(     4)      1   0.000113(    14)      3  -0.000009(    23)     0
      6  H        1   0.000181(     5)      3  -0.000264(    15)      4   0.000376(    24)     0
      7  H        3   0.000147(     6)      1  -0.000352(    16)      4  -0.000175(    25)     0
      8  H        3   0.000090(     7)      1  -0.000362(    17)      4  -0.000035(    26)     0
      9  H        4   0.000028(     8)      1  -0.000264(    18)      3   0.000552(    27)     0
     10  H        4   0.000047(     9)      1  -0.000256(    19)      3   0.000415(    28)     0
     11  H        4  -0.000019(    10)      1   0.000163(    20)      3   0.000019(    29)     0
     12  O        3  -0.000212(    11)      1  -0.000108(    21)      4  -0.000167(    30)     0
 -----------------------------------------------------------------------------------------------
 Internal  Forces:  Max     0.025551606 RMS     0.004670680

 GradGradGradGradGradGradGradGradGradGradGradGradGradGradGradGradGradGrad
 Berny optimization.
 Search for a saddle point.
 Step number   2 out of a maximum of   40
 All quantities printed in internal units (Hartrees-Bohrs-Radians)
 Swaping is turned off.
 Update second derivatives using D2CorN and points    1    2
 ITU=  0  0
     Eigenvalues ---   -0.02547  -0.00133   0.00291   0.02145   0.04072
     Eigenvalues ---    0.05725   0.09451   0.10941   0.12119   0.12675
     Eigenvalues ---    0.13695   0.15726   0.20844   0.22373   0.25671
     Eigenvalues ---    0.28551   0.28675   0.29852   0.30701   0.33408
     Eigenvalues ---    0.34337   0.34626   0.34852   0.35077   0.37007
     Eigenvalues ---    0.37623   0.42122   0.44123   0.50838   0.51787
 Eigenvectors required to have negative eigenvalues:
                          B1        D3        A10       D5        D1
   1                    0.87724  -0.29109  -0.25311   0.14902   0.10321
                          A3        D9        A6        B2        A5
   1                    0.09056   0.07752   0.07662  -0.07118   0.07110
 RFO step:  Lambda0=1.318173260D-02 Lambda=-4.69401126D-03.
 Linear search not attempted -- option 19 set.
 Maximum step size (   0.300) exceeded in Quadratic search.
    -- Step size scaled by   0.303
 Variable       Old X    -DE/DX   Delta X   Delta X   Delta X     New X
                                 (Linear)    (Quad)   (Total)
    B1        4.35071  -0.02555   0.00000   0.10433   0.10433   4.45504
    B2        2.78625   0.00048   0.00000  -0.02066  -0.02066   2.76560
    B3        2.82968  -0.00011   0.00000  -0.00485  -0.00485   2.82483
    B4        1.83104  -0.00002   0.00000  -0.00032  -0.00032   1.83073
    B5        2.04134   0.00018   0.00000  -0.00236  -0.00236   2.03898
    B6        2.09374   0.00015   0.00000  -0.00489  -0.00489   2.08885
    B7        2.09705   0.00009   0.00000  -0.00483  -0.00483   2.09222
    B8        2.06909   0.00003   0.00000  -0.00019  -0.00019   2.06890
    B9        2.07384   0.00005   0.00000   0.00142   0.00142   2.07526
   B10        2.06947  -0.00002   0.00000   0.00007   0.00007   2.06954
   B11        2.62662  -0.00021   0.00000   0.01171   0.01171   2.63833
    A1        1.97960   0.00008   0.00000  -0.01353  -0.01353   1.96607
    A2        2.10640   0.00012   0.00000   0.01791   0.01791   2.12431
    A3        1.84416   0.00011   0.00000   0.04824   0.04824   1.89240
    A4        2.02234  -0.00026   0.00000   0.01617   0.01617   2.03851
    A5        1.98364  -0.00035   0.00000   0.02165   0.02165   2.00529
    A6        1.97349  -0.00036   0.00000   0.01888   0.01888   1.99237
    A7        1.92815  -0.00026   0.00000   0.00857   0.00857   1.93672
    A8        1.95571  -0.00026   0.00000  -0.00446  -0.00446   1.95126
    A9        1.87131   0.00016   0.00000  -0.00730  -0.00730   1.86401
   A10        1.58514  -0.00011   0.00000  -0.06235  -0.06235   1.52279
    D1       -1.88262  -0.00009   0.00000   0.03508   0.03508  -1.84754
    D2        0.57755  -0.00001   0.00000  -0.00926  -0.00926   0.56829
    D3       -2.70884   0.00038   0.00000  -0.08512  -0.08512  -2.79395
    D4       -2.82619  -0.00018   0.00000   0.00538   0.00538  -2.82081
    D5       -0.67517  -0.00004   0.00000   0.05171   0.05171  -0.62345
    D6       -0.08433   0.00055   0.00000   0.14020   0.14020   0.05587
    D7       -2.19560   0.00042   0.00000   0.13999   0.13999  -2.05562
    D8        2.00786   0.00002   0.00000   0.13857   0.13857   2.14643
    D9        1.38733  -0.00017   0.00000   0.02830   0.02830   1.41563
         Item               Value     Threshold  Converged?
 Maximum Force            0.025552     0.000015     NO 
 RMS     Force            0.004671     0.000010     NO 
 Maximum Displacement     0.140196     0.000060     NO 
 RMS     Displacement     0.054772     0.000040     NO 
 Predicted change in Energy= 2.264944D-03
 GradGradGradGradGradGradGradGradGradGradGradGradGradGradGradGradGradGrad

 ---------------------------------------------------------------------------------------------------
                            Z-MATRIX (ANGSTROMS AND DEGREES)
   CD    Cent   Atom    N1       Length/X        N2       Alpha/Y        N3        Beta/Z          J
 ---------------------------------------------------------------------------------------------------
      1      1  C 
      2      2  O        1   2.357508(     1)
      3      3  C        1   1.463490(     2)      2  112.648(    12)
      4      4  C        1   1.494833(     3)      3  121.714(    13)      2 -105.856(    22)      0
      5      5  H        2   0.968779(     4)      1  108.426(    14)      3   32.560(    23)      0
      6      6  H        1   1.078981(     5)      3  116.798(    15)      4 -160.082(    24)      0
      7      7  H        3   1.105371(     6)      1  114.895(    16)      4 -161.621(    25)      0
      8      8  H        3   1.107157(     7)      1  114.155(    17)      4  -35.721(    26)      0
      9      9  H        4   1.094815(     8)      1  110.966(    18)      3    3.201(    27)      0
     10     10  H        4   1.098180(     9)      1  111.799(    19)      3 -117.778(    28)      0
     11     11  H        4   1.095156(    10)      1  106.800(    20)      3  122.982(    29)      0
     12     12  O        3   1.396146(    11)      1   87.249(    21)      4   81.110(    30)      0
 ---------------------------------------------------------------------------------------------------
                         Z-Matrix orientation:                         
 ---------------------------------------------------------------------
 Center     Atomic      Atomic             Coordinates (Angstroms)
 Number     Number       Type             X           Y           Z
 ---------------------------------------------------------------------
      1          6           0        0.000000    0.000000    0.000000
      2          8           0        0.000000    0.000000    2.357508
      3          6           0        1.350642    0.000000   -0.563534
      4          6           0       -0.858992   -1.223247   -0.018071
      5          1           0        0.774648    0.494655    2.663726
      6          1           0       -0.475218    0.960679    0.124354
      7          1           0        1.997284    0.828931   -0.222107
      8          1           0        1.900940   -0.950107   -0.421177
      9          1           0       -0.318037   -2.075570   -0.441787
     10          1           0       -1.774299   -1.070173   -0.605250
     11          1           0       -1.131629   -1.433960    1.021465
     12          8           0        0.755786    0.169128   -1.815238
 ---------------------------------------------------------------------
                    Distance matrix (angstroms):
                    1          2          3          4          5
     1  C    0.000000
     2  O    2.357508   0.000000
     3  C    1.463490   3.218185   0.000000
     4  C    1.494833   2.806702   2.583862   0.000000
     5  H    2.817836   0.968779   3.315367   3.579386   0.000000
     6  H    1.078981   2.477037   2.174824   2.221959   2.868407
     7  H    2.173844   3.366108   1.105371   3.522978   3.151922
     8  H    2.166487   3.498195   1.107157   2.802557   3.587826
     9  H    2.145766   3.499313   2.665952   1.094815   4.176629
    10  H    2.158642   3.615431   3.303372   1.098180   4.430804
    11  H    2.092897   2.263147   3.275688   1.095156   3.170248
    12  O    1.973552   4.244011   1.396146   2.788552   4.490818
                    6          7          8          9         10
     6  H    0.000000
     7  H    2.500132   0.000000
     8  H    3.097553   1.792731   0.000000
     9  H    3.092576   3.720900   2.488162   0.000000
    10  H    2.518788   4.240074   3.681804   1.777144   0.000000
    11  H    2.640072   4.056753   3.392905   1.792959   1.786496
    12  O    2.429803   2.124788   2.123080   2.842206   3.066149
                   11         12
    11  H    0.000000
    12  O    3.765516   0.000000
 Symmetry turned off by external request.
 Stoichiometry    C3H7O2(1-)
 Framework group  C1[X(C3H7O2)]
 Deg. of freedom    30
 Full point group                 C1      NOp   1
 Rotational constants (GHZ):      7.7833541      2.9172208      2.3191312
 Standard basis: 6-31++G(d,p) (6D, 7F)
 The following finite field(s) will be applied:
 An electric field of              0.0000  0.0000 -0.0050
 Integral buffers will be    131072 words long.
 Raffenetti 2 integral format.
 Two-electron integral symmetry is turned off.
   137 basis functions,   216 primitive gaussians,   137 cartesian basis functions
    21 alpha electrons       21 beta electrons
       nuclear repulsion energy       172.2217592884 Hartrees.
 NAtoms=   12 NActive=   12 NUniq=   12 SFac= 1.00D+00 NAtFMM=   50 NAOKFM=F Big=F
 One-electron integrals computed using PRISM.
 PrsmSu:  requested number of processors reduced to:  10 ShMem   1 Linda.
 NBasis=   137 RedAO= T  NBF=   137
 NBsUse=   137 1.00D-06 NBFU=   137
 The nuclear repulsion energy is now       172.1937180389 hartrees.
 Initial guess read from the read-write file.
 B after Tr=     0.000000    0.000000    0.000000
         Rot=    1.000000    0.000000    0.000000    0.000000 Ang=   0.00 deg.
 Harris functional with IExCor=  402 diagonalized for initial guess.
 ExpMin= 3.60D-02 ExpMax= 5.48D+03 ExpMxC= 8.25D+02 IAcc=3 IRadAn=         0 AccDes= 0.00D+00
 HarFok:  IExCor=  402 AccDes= 0.00D+00 IRadAn=         0 IDoV= 1
 ScaDFX=  1.000000  1.000000  1.000000  1.000000
 FoFCou: FMM=F IPFlag=           0 FMFlag=      100000 FMFlg1=           0
         NFxFlg=           0 DoJE=T BraDBF=F KetDBF=T FulRan=T
         Omega=  0.000000  0.000000  1.000000  0.000000  0.000000 ICntrl=     500 IOpCl=  0
         NMat0=    1 NMatS0=    1 NMatT0=    0 NMatD0=    1 NMtDS0=    0 NMtDT0=    0
         I1Cent=           4 NGrid=           0.
 Symmetry not used in FoFCou.
 Requested convergence on RMS density matrix=1.00D-08 within 128 cycles.
 Requested convergence on MAX density matrix=1.00D-06.
 Requested convergence on             energy=1.00D-06.
 No special actions if energy rises.
 SCF Done:  E(RB3LYP) =  -268.934164115     A.U. after   12 cycles
             Convg  =    0.6540D-08             -V/T =  2.0098
 PrsmSu:  requested number of processors reduced to:  10 ShMem   1 Linda.
 PrsmSu:  requested number of processors reduced to:  23 ShMem   1 Linda.
 Calling FoFJK, ICntrl=      2127 FMM=F ISym2X=0 I1Cent= 0 IOpClX= 0 NMat=1 NMatS=1 NMatT=0.
 CoulSu:  requested number of processors reduced to:  16 ShMem   1 Linda.
 -------------------------------------------------------------------
 Center     Atomic                   Forces (Hartrees/Bohr)
 Number     Number              X              Y              Z
 -------------------------------------------------------------------
      1        6          -0.001247001   -0.001082127    0.016629483
      2        8           0.000364437   -0.000113167   -0.021101993
      3        6           0.001839409    0.000122303   -0.001620798
      4        6          -0.001068347    0.000498730    0.000193726
      5        1          -0.000071554   -0.000047336    0.000111213
      6        1           0.000082210    0.000670689   -0.000190463
      7        1          -0.000229062    0.000602678    0.000071643
      8        1          -0.000252317   -0.000381052    0.000061849
      9        1           0.000474237   -0.000067702    0.000440294
     10        1           0.000188393    0.000275957   -0.000237304
     11        1           0.000179628   -0.000462645   -0.000122969
     12        8          -0.000260032   -0.000016328    0.000765318
 -------------------------------------------------------------------
 Cartesian Forces:  Max     0.021101993 RMS     0.004517899
 -----------------------------------------------------------------------------------------------
                       Internal Coordinate Forces (Hartree/Bohr or radian)
  Cent   Atom   N1       Length/X         N2         Alpha/Y        N3         Beta/Z          J
 -----------------------------------------------------------------------------------------------
      1  C 
      2  O        1  -0.020991(     1)
      3  C        1   0.001291(     2)      2   0.000922(    12)
      4  C        1  -0.000073(     3)      3   0.000274(    13)      2   0.000388(    22)     0
      5  H        2  -0.000046(     4)      1   0.000243(    14)      3  -0.000002(    23)     0
      6  H        1   0.000539(     5)      3  -0.000896(    15)      4   0.000175(    24)     0
      7  H        3   0.000340(     6)      1  -0.000880(    16)      4  -0.000677(    25)     0
      8  H        3   0.000210(     7)      1  -0.000785(    17)      4   0.000319(    26)     0
      9  H        4   0.000117(     8)      1  -0.000585(    18)      3   0.001109(    27)     0
     10  H        4   0.000008(     9)      1  -0.000747(    19)      3   0.000377(    28)     0
     11  H        4  -0.000072(    10)      1   0.000644(    20)      3  -0.000791(    29)     0
     12  O        3  -0.000577(    11)      1  -0.001485(    21)      4   0.000151(    30)     0
 -----------------------------------------------------------------------------------------------
 Internal  Forces:  Max     0.020990780 RMS     0.003883951

 GradGradGradGradGradGradGradGradGradGradGradGradGradGradGradGradGradGrad
 Berny optimization.
 Search for a saddle point.
 Step number   3 out of a maximum of   40
 All quantities printed in internal units (Hartrees-Bohrs-Radians)
 Swaping is turned off.
 Update second derivatives using D2CorN and points    2    3
 ITU=  0  0  0
     Eigenvalues ---   -0.02530   0.00080   0.00291   0.02112   0.04055
     Eigenvalues ---    0.05715   0.09433   0.10941   0.12120   0.12674
     Eigenvalues ---    0.13691   0.15727   0.20844   0.22373   0.25671
     Eigenvalues ---    0.28551   0.28675   0.29852   0.30702   0.33408
     Eigenvalues ---    0.34337   0.34626   0.34852   0.35077   0.37006
     Eigenvalues ---    0.37622   0.42122   0.44123   0.50838   0.51787
 Eigenvectors required to have negative eigenvalues:
                          B1        D3        A10       D5        D1
   1                    0.87189  -0.29767  -0.26230   0.15726   0.10806
                          A3        D9        A6        A5        B2
   1                    0.09640   0.08264   0.07845   0.07143  -0.06906
 RFO step:  Lambda0=9.400541285D-03 Lambda=-2.98169199D-03.
 Linear search not attempted -- option 19 set.
 Maximum step size (   0.300) exceeded in Quadratic search.
    -- Step size scaled by   0.409
 Variable       Old X    -DE/DX   Delta X   Delta X   Delta X     New X
                                 (Linear)    (Quad)   (Total)
    B1        4.45504  -0.02099   0.00000   0.13184   0.13184   4.58688
    B2        2.76560   0.00129   0.00000  -0.02214  -0.02214   2.74345
    B3        2.82483  -0.00007   0.00000  -0.00614  -0.00614   2.81868
    B4        1.83073  -0.00005   0.00000  -0.00040  -0.00040   1.83033
    B5        2.03898   0.00054   0.00000  -0.00242  -0.00242   2.03656
    B6        2.08885   0.00034   0.00000  -0.00583  -0.00583   2.08301
    B7        2.09222   0.00021   0.00000  -0.00599  -0.00599   2.08623
    B8        2.06890   0.00012   0.00000   0.00050   0.00050   2.06940
    B9        2.07526   0.00001   0.00000   0.00089   0.00089   2.07615
   B10        2.06954  -0.00007   0.00000  -0.00016  -0.00016   2.06938
   B11        2.63833  -0.00058   0.00000   0.01379   0.01379   2.65212
    A1        1.96607   0.00092   0.00000  -0.00729  -0.00729   1.95878
    A2        2.12431   0.00027   0.00000   0.02120   0.02120   2.14550
    A3        1.89240   0.00024   0.00000   0.06399   0.06399   1.95639
    A4        2.03851  -0.00090   0.00000   0.01593   0.01593   2.05444
    A5        2.00529  -0.00088   0.00000   0.02617   0.02617   2.03146
    A6        1.99237  -0.00079   0.00000   0.02421   0.02421   2.01659
    A7        1.93672  -0.00059   0.00000   0.00579   0.00579   1.94251
    A8        1.95126  -0.00075   0.00000  -0.00583  -0.00583   1.94543
    A9        1.86401   0.00064   0.00000  -0.00616  -0.00616   1.85785
   A10        1.52279  -0.00149   0.00000  -0.08349  -0.08349   1.43930
    D1       -1.84754   0.00039   0.00000   0.04896   0.04896  -1.79858
    D2        0.56829   0.00000   0.00000   0.00612   0.00612   0.57441
    D3       -2.79395   0.00018   0.00000  -0.10811  -0.10811  -2.90206
    D4       -2.82081  -0.00068   0.00000   0.01200   0.01200  -2.80881
    D5       -0.62345   0.00032   0.00000   0.07478   0.07478  -0.54868
    D6        0.05587   0.00111   0.00000   0.11289   0.11289   0.16876
    D7       -2.05562   0.00038   0.00000   0.11209   0.11209  -1.94353
    D8        2.14643  -0.00079   0.00000   0.10751   0.10751   2.25394
    D9        1.41563   0.00015   0.00000   0.04362   0.04362   1.45925
         Item               Value     Threshold  Converged?
 Maximum Force            0.020991     0.000015     NO 
 RMS     Force            0.003884     0.000010     NO 
 Maximum Displacement     0.131836     0.000060     NO 
 RMS     Displacement     0.054772     0.000040     NO 
 Predicted change in Energy= 2.233577D-03
 GradGradGradGradGradGradGradGradGradGradGradGradGradGradGradGradGradGrad

 ---------------------------------------------------------------------------------------------------
                            Z-MATRIX (ANGSTROMS AND DEGREES)
   CD    Cent   Atom    N1       Length/X        N2       Alpha/Y        N3        Beta/Z          J
 ---------------------------------------------------------------------------------------------------
      1      1  C 
      2      2  O        1   2.427273(     1)
      3      3  C        1   1.451773(     2)      2  112.230(    12)
      4      4  C        1   1.491582(     3)      3  122.928(    13)      2 -103.051(    22)      0
      5      5  H        2   0.968569(     4)      1  112.093(    14)      3   32.911(    23)      0
      6      6  H        1   1.077700(     5)      3  117.711(    15)      4 -166.276(    24)      0
      7      7  H        3   1.102283(     6)      1  116.394(    16)      4 -160.933(    25)      0
      8      8  H        3   1.103988(     7)      1  115.542(    17)      4  -31.437(    26)      0
      9      9  H        4   1.095080(     8)      1  111.298(    18)      3    9.669(    27)      0
     10     10  H        4   1.098649(     9)      1  111.465(    19)      3 -111.356(    28)      0
     11     11  H        4   1.095069(    10)      1  106.447(    20)      3  129.141(    29)      0
     12     12  O        3   1.403443(    11)      1   82.466(    21)      4   83.609(    30)      0
 ---------------------------------------------------------------------------------------------------
                         Z-Matrix orientation:                         
 ---------------------------------------------------------------------
 Center     Atomic      Atomic             Coordinates (Angstroms)
 Number     Number       Type             X           Y           Z
 ---------------------------------------------------------------------
      1          6           0        0.000000    0.000000    0.000000
      2          8           0        0.000000    0.000000    2.427273
      3          6           0        1.343866    0.000000   -0.549244
      4          6           0       -0.857499   -1.219624    0.045049
      5          1           0        0.753424    0.487622    2.791556
      6          1           0       -0.468132    0.954028    0.179221
      7          1           0        1.996060    0.836267   -0.248697
      8          1           0        1.903359   -0.945247   -0.438497
      9          1           0       -0.288246   -2.116168   -0.222082
     10          1           0       -1.711577   -1.136149   -0.640962
     11          1           0       -1.219834   -1.306012    1.074819
     12          8           0        0.650703    0.161358   -1.758847
 ---------------------------------------------------------------------
                    Distance matrix (angstroms):
                    1          2          3          4          5
     1  C    0.000000
     2  O    2.427273   0.000000
     3  C    1.451773   3.265827   0.000000
     4  C    1.491582   2.810299   2.585860   0.000000
     5  H    2.932271   0.968569   3.427440   3.612903   0.000000
     6  H    1.077700   2.486575   2.173515   2.212322   2.921306
     7  H    2.178405   3.441571   1.102283   3.529274   3.302853
     8  H    2.169918   3.567758   1.103988   2.816280   3.716007
     9  H    2.147224   3.402988   2.692395   1.095080   4.116651
    10  H    2.152014   3.692479   3.261132   1.098649   4.527146
    11  H    2.085401   2.241159   3.303908   1.095069   3.171444
    12  O    1.882285   4.239464   1.403443   2.726872   4.563242
                    6          7          8          9         10
     6  H    0.000000
     7  H    2.503842   0.000000
     8  H    3.100450   1.793993   0.000000
     9  H    3.101533   3.733046   2.494197   0.000000
    10  H    2.566650   4.217923   3.625631   1.778137   0.000000
    11  H    2.544589   4.084486   3.489213   1.790576   1.792923
    12  O    2.374074   2.132145   2.130034   2.903515   2.917801
                   11         12
    11  H    0.000000
    12  O    3.698885   0.000000
 Symmetry turned off by external request.
 Stoichiometry    C3H7O2(1-)
 Framework group  C1[X(C3H7O2)]
 Deg. of freedom    30
 Full point group                 C1      NOp   1
 Rotational constants (GHZ):      7.8576895      2.8991991      2.3206716
 Standard basis: 6-31++G(d,p) (6D, 7F)
 The following finite field(s) will be applied:
 An electric field of              0.0000  0.0000 -0.0050
 Integral buffers will be    131072 words long.
 Raffenetti 2 integral format.
 Two-electron integral symmetry is turned off.
   137 basis functions,   216 primitive gaussians,   137 cartesian basis functions
    21 alpha electrons       21 beta electrons
       nuclear repulsion energy       172.6115567326 Hartrees.
 NAtoms=   12 NActive=   12 NUniq=   12 SFac= 1.00D+00 NAtFMM=   50 NAOKFM=F Big=F
 One-electron integrals computed using PRISM.
 PrsmSu:  requested number of processors reduced to:  10 ShMem   1 Linda.
 NBasis=   137 RedAO= T  NBF=   137
 NBsUse=   137 1.00D-06 NBFU=   137
 The nuclear repulsion energy is now       172.5660371071 hartrees.
 Initial guess read from the read-write file.
 B after Tr=     0.000000    0.000000    0.000000
         Rot=    1.000000    0.000000    0.000000    0.000000 Ang=   0.00 deg.
 Harris functional with IExCor=  402 diagonalized for initial guess.
 ExpMin= 3.60D-02 ExpMax= 5.48D+03 ExpMxC= 8.25D+02 IAcc=3 IRadAn=         0 AccDes= 0.00D+00
 HarFok:  IExCor=  402 AccDes= 0.00D+00 IRadAn=         0 IDoV= 1
 ScaDFX=  1.000000  1.000000  1.000000  1.000000
 FoFCou: FMM=F IPFlag=           0 FMFlag=      100000 FMFlg1=           0
         NFxFlg=           0 DoJE=T BraDBF=F KetDBF=T FulRan=T
         Omega=  0.000000  0.000000  1.000000  0.000000  0.000000 ICntrl=     500 IOpCl=  0
         NMat0=    1 NMatS0=    1 NMatT0=    0 NMatD0=    1 NMtDS0=    0 NMtDT0=    0
         I1Cent=           4 NGrid=           0.
 Symmetry not used in FoFCou.
 Requested convergence on RMS density matrix=1.00D-08 within 128 cycles.
 Requested convergence on MAX density matrix=1.00D-06.
 Requested convergence on             energy=1.00D-06.
 No special actions if energy rises.
 SCF Done:  E(RB3LYP) =  -268.931965770     A.U. after   12 cycles
             Convg  =    0.8929D-08             -V/T =  2.0097
 PrsmSu:  requested number of processors reduced to:  10 ShMem   1 Linda.
 PrsmSu:  requested number of processors reduced to:  23 ShMem   1 Linda.
 Calling FoFJK, ICntrl=      2127 FMM=F ISym2X=0 I1Cent= 0 IOpClX= 0 NMat=1 NMatS=1 NMatT=0.
 CoulSu:  requested number of processors reduced to:  16 ShMem   1 Linda.
 -------------------------------------------------------------------
 Center     Atomic                   Forces (Hartrees/Bohr)
 Number     Number              X              Y              Z
 -------------------------------------------------------------------
      1        6          -0.003512202   -0.000180211    0.007934879
      2        8           0.000259096   -0.000058873   -0.016173569
      3        6           0.005208151   -0.000368382   -0.000935851
      4        6          -0.001473707   -0.000485685    0.001070905
      5        1          -0.000205165   -0.000063959    0.000368187
      6        1           0.000632367    0.001459992    0.000417983
      7        1          -0.000542765    0.001188890   -0.000006506
      8        1          -0.000604953   -0.000857580   -0.000163301
      9        1           0.000355535   -0.000022446    0.000446639
     10        1           0.000130342    0.000457381   -0.000063872
     11        1           0.000582884   -0.001123714   -0.000016050
     12        8          -0.000829583    0.000054585    0.002120556
 -------------------------------------------------------------------
 Cartesian Forces:  Max     0.016173569 RMS     0.003256394
 -----------------------------------------------------------------------------------------------
                       Internal Coordinate Forces (Hartree/Bohr or radian)
  Cent   Atom   N1       Length/X         N2         Alpha/Y        N3         Beta/Z          J
 -----------------------------------------------------------------------------------------------
      1  C 
      2  O        1  -0.015805(     1)
      3  C        1   0.002607(     2)      2   0.001559(    12)
      4  C        1   0.001237(     3)      3  -0.000484(    13)      2   0.000265(    22)     0
      5  H        2  -0.000053(     4)      1   0.000767(    14)      3   0.000098(    23)     0
      6  H        1   0.001087(     5)      3  -0.002146(    15)      4  -0.001160(    24)     0
      7  H        3   0.000579(     6)      1  -0.001761(    16)      4  -0.001513(    25)     0
      8  H        3   0.000411(     7)      1  -0.001562(    17)      4   0.001188(    26)     0
      9  H        4   0.000094(     8)      1  -0.000459(    18)      3   0.000999(    27)     0
     10  H        4  -0.000027(     9)      1  -0.000984(    19)      3  -0.000136(    28)     0
     11  H        4  -0.000119(    10)      1   0.001331(    20)      3  -0.002151(    29)     0
     12  O        3  -0.001412(    11)      1  -0.004696(    21)      4   0.000645(    30)     0
 -----------------------------------------------------------------------------------------------
 Internal  Forces:  Max     0.015805381 RMS     0.003221950

 GradGradGradGradGradGradGradGradGradGradGradGradGradGradGradGradGradGrad
 Berny optimization.
 Search for a saddle point.
 Step number   4 out of a maximum of   40
 All quantities printed in internal units (Hartrees-Bohrs-Radians)
 Swaping is turned off.
 Update second derivatives using D2CorN and points    2    3    4
 ITU=  0  0  0  0
     Eigenvalues ---   -0.02622   0.00284   0.00388   0.02001   0.04014
     Eigenvalues ---    0.05684   0.09397   0.10940   0.12121   0.12673
     Eigenvalues ---    0.13682   0.15727   0.20844   0.22373   0.25673
     Eigenvalues ---    0.28551   0.28677   0.29858   0.30702   0.33411
     Eigenvalues ---    0.34336   0.34626   0.34852   0.35078   0.37005
     Eigenvalues ---    0.37622   0.42122   0.44127   0.50838   0.51787
 Eigenvectors required to have negative eigenvalues:
                          B1        D3        A10       D5        A3
   1                    0.84434  -0.32187  -0.29222   0.18262   0.11880
                          D1        D9        A6        A5        A2
   1                    0.11825   0.09719   0.08266   0.07286   0.06735
 RFO step:  Lambda0=4.498276347D-03 Lambda=-2.63172777D-03.
 Linear search not attempted -- option 19 set.
 Maximum step size (   0.300) exceeded in Quadratic search.
    -- Step size scaled by   0.599
 Variable       Old X    -DE/DX   Delta X   Delta X   Delta X     New X
                                 (Linear)    (Quad)   (Total)
    B1        4.58688  -0.01581   0.00000   0.11345   0.11345   4.70033
    B2        2.74345   0.00261   0.00000  -0.01887  -0.01887   2.72458
    B3        2.81868   0.00124   0.00000  -0.00286  -0.00286   2.81582
    B4        1.83033  -0.00005   0.00000  -0.00050  -0.00050   1.82983
    B5        2.03656   0.00109   0.00000  -0.00214  -0.00214   2.03442
    B6        2.08301   0.00058   0.00000  -0.00650  -0.00650   2.07652
    B7        2.08623   0.00041   0.00000  -0.00697  -0.00697   2.07926
    B8        2.06940   0.00009   0.00000   0.00118   0.00118   2.07058
    B9        2.07615  -0.00003   0.00000   0.00009   0.00009   2.07623
   B10        2.06938  -0.00012   0.00000  -0.00078  -0.00078   2.06860
   B11        2.65212  -0.00141   0.00000   0.01580   0.01580   2.66792
    A1        1.95878   0.00156   0.00000   0.00019   0.00019   1.95897
    A2        2.14550  -0.00048   0.00000   0.02001   0.02001   2.16552
    A3        1.95639   0.00077   0.00000   0.09456   0.09456   2.05094
    A4        2.05444  -0.00215   0.00000   0.01102   0.01102   2.06546
    A5        2.03146  -0.00176   0.00000   0.03048   0.03048   2.06194
    A6        2.01659  -0.00156   0.00000   0.02883   0.02883   2.04541
    A7        1.94251  -0.00046   0.00000   0.00105   0.00105   1.94356
    A8        1.94543  -0.00098   0.00000  -0.00640  -0.00640   1.93903
    A9        1.85785   0.00133   0.00000  -0.00257  -0.00257   1.85528
   A10        1.43930  -0.00470   0.00000  -0.11193  -0.11193   1.32737
    D1       -1.79858   0.00027   0.00000   0.06906   0.06906  -1.72952
    D2        0.57441   0.00010   0.00000   0.05775   0.05775   0.63216
    D3       -2.90206  -0.00116   0.00000  -0.13896  -0.13896  -3.04102
    D4       -2.80881  -0.00151   0.00000   0.02965   0.02965  -2.77916
    D5       -0.54868   0.00119   0.00000   0.11671   0.11671  -0.43197
    D6        0.16876   0.00100   0.00000   0.04554   0.04554   0.21430
    D7       -1.94353  -0.00014   0.00000   0.04546   0.04546  -1.89807
    D8        2.25394  -0.00215   0.00000   0.03502   0.03502   2.28896
    D9        1.45925   0.00065   0.00000   0.07304   0.07304   1.53229
         Item               Value     Threshold  Converged?
 Maximum Force            0.015805     0.000015     NO 
 RMS     Force            0.003222     0.000010     NO 
 Maximum Displacement     0.138959     0.000060     NO 
 RMS     Displacement     0.054772     0.000040     NO 
 Predicted change in Energy= 8.521464D-04
 GradGradGradGradGradGradGradGradGradGradGradGradGradGradGradGradGradGrad

 ---------------------------------------------------------------------------------------------------
                            Z-MATRIX (ANGSTROMS AND DEGREES)
   CD    Cent   Atom    N1       Length/X        N2       Alpha/Y        N3        Beta/Z          J
 ---------------------------------------------------------------------------------------------------
      1      1  C 
      2      2  O        1   2.487310(     1)
      3      3  C        1   1.441785(     2)      2  112.241(    12)
      4      4  C        1   1.490066(     3)      3  124.075(    13)      2  -99.094(    22)      0
      5      5  H        2   0.968304(     4)      1  117.510(    14)      3   36.220(    23)      0
      6      6  H        1   1.076569(     5)      3  118.342(    15)      4 -174.238(    24)      0
      7      7  H        3   1.098844(     6)      1  118.141(    16)      4 -159.234(    25)      0
      8      8  H        3   1.100299(     7)      1  117.194(    17)      4  -24.750(    26)      0
      9      9  H        4   1.095704(     8)      1  111.358(    18)      3   12.278(    27)      0
     10     10  H        4   1.098695(     9)      1  111.098(    19)      3 -108.751(    28)      0
     11     11  H        4   1.094656(    10)      1  106.300(    20)      3  131.148(    29)      0
     12     12  O        3   1.411803(    11)      1   76.053(    21)      4   87.794(    30)      0
 ---------------------------------------------------------------------------------------------------
                         Z-Matrix orientation:                         
 ---------------------------------------------------------------------
 Center     Atomic      Atomic             Coordinates (Angstroms)
 Number     Number       Type             X           Y           Z
 ---------------------------------------------------------------------
      1          6           0        0.000000    0.000000    0.000000
      2          8           0        0.000000    0.000000    2.487310
      3          6           0        1.334516    0.000000   -0.545720
      4          6           0       -0.846576   -1.218715    0.135426
      5          1           0        0.692852    0.507463    2.934579
      6          1           0       -0.452217    0.945917    0.244424
      7          1           0        1.996815    0.840319   -0.295351
      8          1           0        1.899903   -0.942373   -0.491595
      9          1           0       -0.261142   -2.131030   -0.024308
     10          1           0       -1.675631   -1.206470   -0.585441
     11          1           0       -1.232292   -1.212577    1.159856
     12          8           0        0.504669    0.164321   -1.676004
 ---------------------------------------------------------------------
                    Distance matrix (angstroms):
                    1          2          3          4          5
     1  C    0.000000
     2  O    2.487310   0.000000
     3  C    1.441785   3.313639   0.000000
     4  C    1.490066   2.780884   2.589670   0.000000
     5  H    3.057665   0.968304   3.575155   3.631086   0.000000
     6  H    1.076569   2.475842   2.170599   2.202959   2.956410
     7  H    2.186467   3.526557   1.098844   3.536956   3.499080
     8  H    2.177008   3.656715   1.100299   2.830665   3.911222
     9  H    2.147108   3.304195   2.712800   1.095704   4.077592
    10  H    2.146171   3.702040   3.243167   1.098695   4.575786
    11  H    2.081863   2.179683   3.311772   1.094656   3.132787
    12  O    1.758033   4.197007   1.411803   2.649515   4.627162
                    6          7          8          9         10
     6  H    0.000000
     7  H    2.510032   0.000000
     8  H    3.104807   1.796077   0.000000
     9  H    3.094564   3.741757   2.510254   0.000000
    10  H    2.611165   4.214303   3.586502   1.780579   0.000000
    11  H    2.470957   4.093792   3.551189   1.785758   1.800735
    12  O    2.283542   2.142352   2.138755   2.929710   2.796802
                   11         12
    11  H    0.000000
    12  O    3.599303   0.000000
 Symmetry turned off by external request.
 Stoichiometry    C3H7O2(1-)
 Framework group  C1[X(C3H7O2)]
 Deg. of freedom    30
 Full point group                 C1      NOp   1
 Rotational constants (GHZ):      7.9847041      2.9060897      2.3493282
 Standard basis: 6-31++G(d,p) (6D, 7F)
 The following finite field(s) will be applied:
 An electric field of              0.0000  0.0000 -0.0050
 Integral buffers will be    131072 words long.
 Raffenetti 2 integral format.
 Two-electron integral symmetry is turned off.
   137 basis functions,   216 primitive gaussians,   137 cartesian basis functions
    21 alpha electrons       21 beta electrons
       nuclear repulsion energy       173.7011352254 Hartrees.
 NAtoms=   12 NActive=   12 NUniq=   12 SFac= 1.00D+00 NAtFMM=   50 NAOKFM=F Big=F
 One-electron integrals computed using PRISM.
 PrsmSu:  requested number of processors reduced to:  10 ShMem   1 Linda.
 NBasis=   137 RedAO= T  NBF=   137
 NBsUse=   137 1.00D-06 NBFU=   137
 The nuclear repulsion energy is now       173.6352703267 hartrees.
 Initial guess read from the read-write file.
 B after Tr=     0.000000    0.000000    0.000000
         Rot=    1.000000    0.000000    0.000000    0.000000 Ang=   0.00 deg.
 Harris functional with IExCor=  402 diagonalized for initial guess.
 ExpMin= 3.60D-02 ExpMax= 5.48D+03 ExpMxC= 8.25D+02 IAcc=3 IRadAn=         0 AccDes= 0.00D+00
 HarFok:  IExCor=  402 AccDes= 0.00D+00 IRadAn=         0 IDoV= 1
 ScaDFX=  1.000000  1.000000  1.000000  1.000000
 FoFCou: FMM=F IPFlag=           0 FMFlag=      100000 FMFlg1=           0
         NFxFlg=           0 DoJE=T BraDBF=F KetDBF=T FulRan=T
         Omega=  0.000000  0.000000  1.000000  0.000000  0.000000 ICntrl=     500 IOpCl=  0
         NMat0=    1 NMatS0=    1 NMatT0=    0 NMatD0=    1 NMtDS0=    0 NMtDT0=    0
         I1Cent=           4 NGrid=           0.
 Symmetry not used in FoFCou.
[...]
      2        8           0.000031322   -0.000200002    0.000000439
      3        6           0.000002471    0.000007306    0.000000040
      4        6          -0.000000866    0.000000049    0.000000974
      5        1           0.000000430    0.000000363   -0.000000399
      6        1           0.000000095    0.000000204    0.000000030
      7        1          -0.000000471    0.000000153   -0.000000549
      8        1          -0.000000058    0.000000468    0.000000105
      9        1           0.000000183    0.000000087    0.000000295
     10        1          -0.000000009    0.000000075   -0.000000245
     11        1          -0.000000159   -0.000000744   -0.000000144
     12        8           0.000000512    0.000001164   -0.000000991
 -------------------------------------------------------------------
 Cartesian Forces:  Max     0.004999554 RMS     0.000834568
 -----------------------------------------------------------------------------------------------
                       Internal Coordinate Forces (Hartree/Bohr or radian)
  Cent   Atom   N1       Length/X         N2         Alpha/Y        N3         Beta/Z          J
 -----------------------------------------------------------------------------------------------
      1  C 
      2  O        1   0.000000(     1)
      3  C        1   0.000003(     2)      2  -0.000001(    12)
      4  C        1   0.000001(     3)      3   0.000001(    13)      2  -0.000001(    22)     0
      5  H        2   0.000000(     4)      1  -0.000001(    14)      3   0.000000(    23)     0
      6  H        1   0.000000(     5)      3   0.000000(    15)      4   0.000000(    24)     0
      7  H        3   0.000000(     6)      1   0.000000(    16)      4  -0.000001(    25)     0
      8  H        3   0.000000(     7)      1   0.000000(    17)      4   0.000000(    26)     0
      9  H        4   0.000000(     8)      1   0.000000(    18)      3   0.000001(    27)     0
     10  H        4   0.000000(     9)      1   0.000000(    19)      3   0.000000(    28)     0
     11  H        4   0.000000(    10)      1   0.000001(    20)      3  -0.000001(    29)     0
     12  O        3   0.000001(    11)      1   0.000003(    21)      4   0.000003(    30)     0
 -----------------------------------------------------------------------------------------------
 Internal  Forces:  Max     0.000002776 RMS     0.000001051

 GradGradGradGradGradGradGradGradGradGradGradGradGradGradGradGradGradGrad
 Berny optimization.
 Search for a saddle point.
 Step number   1 out of a maximum of    2
 All quantities printed in internal units (Hartrees-Bohrs-Radians)
 Swaping is turned off.
 Second derivative matrix not updated -- analytic derivatives used.
 ITU=  0
     Eigenvalues ---   -0.03257   0.00264   0.00397   0.02103   0.03411
     Eigenvalues ---    0.06045   0.08354   0.10592   0.12224   0.12469
     Eigenvalues ---    0.13374   0.15416   0.22107   0.23189   0.26286
     Eigenvalues ---    0.29637   0.30221   0.31673   0.31804   0.32917
     Eigenvalues ---    0.34156   0.34895   0.35149   0.35333   0.37394
     Eigenvalues ---    0.37959   0.40942   0.51639   0.51781   0.57325
 Eigenvectors required to have negative eigenvalues:
                          B1        D3        A10       A3        D5
   1                    0.59881  -0.50104  -0.37681   0.34623   0.27557
                          D9        D1        A6        A5        A2
   1                    0.15796   0.10679   0.06684   0.04555   0.04246
 Angle between quadratic step and forces=  77.37 degrees.
 Linear search not attempted -- option 19 set.
 Variable       Old X    -DE/DX   Delta X   Delta X   Delta X     New X
                                 (Linear)    (Quad)   (Total)
    B1        4.39895   0.00000   0.00000   0.00004   0.00004   4.39898
    B2        2.73416   0.00000   0.00000   0.00000   0.00000   2.73417
    B3        2.82787   0.00000   0.00000   0.00000   0.00000   2.82787
    B4        1.82986   0.00000   0.00000   0.00000   0.00000   1.82986
    B5        2.03553   0.00000   0.00000   0.00000   0.00000   2.03553
    B6        2.07504   0.00000   0.00000   0.00000   0.00000   2.07503
    B7        2.07823   0.00000   0.00000   0.00000   0.00000   2.07823
    B8        2.07234   0.00000   0.00000   0.00000   0.00000   2.07234
    B9        2.07600   0.00000   0.00000   0.00000   0.00000   2.07600
   B10        2.07056   0.00000   0.00000   0.00000   0.00000   2.07056
   B11        2.68425   0.00000   0.00000   0.00000   0.00000   2.68425
    A1        1.90446   0.00000   0.00000  -0.00001  -0.00001   1.90445
    A2        2.14361   0.00000   0.00000   0.00001   0.00001   2.14362
    A3        2.20329   0.00000   0.00000  -0.00004  -0.00004   2.20325
    A4        2.05983   0.00000   0.00000   0.00000   0.00000   2.05983
    A5        2.05523   0.00000   0.00000   0.00000   0.00000   2.05523
    A6        2.04879   0.00000   0.00000   0.00001   0.00001   2.04880
    A7        1.93031   0.00000   0.00000   0.00000   0.00000   1.93031
    A8        1.93893   0.00000   0.00000   0.00000   0.00000   1.93893
    A9        1.86040   0.00000   0.00000   0.00001   0.00001   1.86041
   A10        1.28936   0.00000   0.00000  -0.00001  -0.00001   1.28935
    D1       -1.71496   0.00000   0.00000   0.00001   0.00001  -1.71495
    D2        0.69818   0.00000   0.00000  -0.00003  -0.00003   0.69815
    D3       -3.12077   0.00000   0.00000  -0.00003  -0.00003  -3.12080
    D4       -2.77567   0.00000   0.00000   0.00000   0.00000  -2.77567
    D5       -0.37683   0.00000   0.00000   0.00002   0.00002  -0.37682
    D6       -0.14126   0.00000   0.00000   0.00003   0.00003  -0.14123
    D7       -2.24087   0.00000   0.00000   0.00003   0.00003  -2.24084
    D8        1.95124   0.00000   0.00000   0.00002   0.00002   1.95126
    D9        1.56236   0.00000   0.00000   0.00001   0.00001   1.56237
         Item               Value     Threshold  Converged?
 Maximum Force            0.000003     0.000015     YES
 RMS     Force            0.000001     0.000010     YES
 Maximum Displacement     0.000038     0.000060     YES
 RMS     Displacement     0.000016     0.000040     YES
 Predicted change in Energy=-5.616766D-11
 Optimization completed.
    -- Stationary point found.
                       ----------------------------
                       !   Optimized Parameters   !
                       ! (Angstroms and Degrees)  !
 ----------------------                            ----------------------
 !      Name          Value   Derivative information (Atomic Units)     !
 ------------------------------------------------------------------------
 !       B1          2.3278   -DE/DX =    0.0                           !
 !       B2          1.4469   -DE/DX =    0.0                           !
 !       B3          1.4964   -DE/DX =    0.0                           !
 !       B4          0.9683   -DE/DX =    0.0                           !
 !       B5          1.0772   -DE/DX =    0.0                           !
 !       B6          1.0981   -DE/DX =    0.0                           !
 !       B7          1.0998   -DE/DX =    0.0                           !
 !       B8          1.0966   -DE/DX =    0.0                           !
 !       B9          1.0986   -DE/DX =    0.0                           !
 !       B10         1.0957   -DE/DX =    0.0                           !
 !       B11         1.4204   -DE/DX =    0.0                           !
 !       A1        109.1176   -DE/DX =    0.0                           !
 !       A2        122.82     -DE/DX =    0.0                           !
 !       A3        126.239    -DE/DX =    0.0                           !
 !       A4        118.0196   -DE/DX =    0.0                           !
 !       A5        117.7558   -DE/DX =    0.0                           !
 !       A6        117.3873   -DE/DX =    0.0                           !
 !       A7        110.5989   -DE/DX =    0.0                           !
 !       A8        111.0924   -DE/DX =    0.0                           !
 !       A9        106.5933   -DE/DX =    0.0                           !
 !       A10        73.8749   -DE/DX =    0.0                           !
 !       D1        -98.26     -DE/DX =    0.0                           !
 !       D2         40.0027   -DE/DX =    0.0                           !
 !       D3       -178.8068   -DE/DX =    0.0                           !
 !       D4       -159.0343   -DE/DX =    0.0                           !
 !       D5        -21.591    -DE/DX =    0.0                           !
 !       D6         -8.0935   -DE/DX =    0.0                           !
 !       D7       -128.3926   -DE/DX =    0.0                           !
 !       D8        111.7976   -DE/DX =    0.0                           !
 !       D9         89.5165   -DE/DX =    0.0                           !
 ------------------------------------------------------------------------
 GradGradGradGradGradGradGradGradGradGradGradGradGradGradGradGradGradGrad

 1\1\GINC-C38N09\Freq\RB3LYP\6-31++G(d,p)\C3H7O2(1-)\ROOT\18-May-2018\1
 \\#N Geom=AllCheck Guess=TCheck SCRF=Check GenChk RB3LYP/6-31++G(d,p) 
 Freq\\OH-BACK-MID\\-1,1\C\O,1,B1\C,1,B2,2,A1\C,1,B3,3,A2,2,D1,0\H,2,B4
 ,1,A3,3,D2,0\H,1,B5,3,A4,4,D3,0\H,3,B6,1,A5,4,D4,0\H,3,B7,1,A6,4,D5,0\
 H,4,B8,1,A7,3,D6,0\H,4,B9,1,A8,3,D7,0\H,4,B10,1,A9,3,D8,0\O,3,B11,1,A1
 0,4,D9,0\\B1=2.32782223\B2=1.44685684\B3=1.49644375\B4=0.96832132\B5=1
 .07715642\B6=1.0980617\B7=1.09975125\B8=1.09663462\B9=1.09857004\B10=1
 .09569224\B11=1.42044166\A1=109.11759331\A2=122.82000362\A3=126.238961
 01\A4=118.01963042\A5=117.75579389\A6=117.38727807\A7=110.59888899\A8=
 111.09244837\A9=106.59331864\A10=73.87494224\D1=-98.26000188\D2=40.002
 66758\D3=-178.80675452\D4=-159.03427828\D5=-21.59098962\D6=-8.09352903
 \D7=-128.39256187\D8=111.79762382\D9=89.51649801\\Version=EM64L-G09Rev
 B.01\HF=-268.9343299\RMSD=9.022e-09\RMSF=8.346e-04\ZeroPoint=0.0943219
 \Thermal=0.1012094\Dipole=0.3969131,-0.2508981,-0.8197401\DipoleDeriv=
 0.213558,0.1421577,-0.0337205,0.1809004,0.2478867,-0.1185915,-0.477809
 3,-0.1101097,2.1124783,-0.8102609,0.1481284,0.0191584,0.1359526,-0.896
 6462,-0.0162617,0.1917944,0.0469937,-1.4312538,0.5143969,-0.0004747,-0
 .1694578,-0.0808694,0.4256625,0.0418105,0.3792828,-0.0030011,0.2519354
 ,0.14439,-0.1388413,0.0887141,-0.1038598,0.0316098,0.0692278,0.0889782
 ,0.0554082,-0.0529947,0.0840058,-0.1737406,-0.1306627,-0.1578687,0.147
 3017,-0.1247358,-0.1279954,-0.1296354,0.0149298,0.0109294,-0.002884,0.
 0073701,0.0009093,-0.037011,0.0249197,0.0435829,0.0258124,-0.0036483,-
 0.1529473,-0.1112142,-0.0526315,-0.1783152,-0.1461614,-0.0516535,-0.09
 31398,-0.0522278,0.0249909,-0.1074393,0.0922637,-0.0269621,0.1863042,-
 0.1916558,0.0029103,-0.0619207,0.0206404,0.0377813,-0.0268221,0.125528
 6,0.0575133,0.0422482,-0.1276301,-0.0753675,0.0162787,-0.1203075,0.010
 7485,-0.2221009,-0.0346422,-0.117957,0.0095002,0.0108061,0.0211032,-0.
 1550924,-0.037192,-0.0100287,0.0631001,0.016289,0.0220052,-0.001621,0.
 0794239,0.0473705,0.0867368,0.1085163,0.1236023,-0.7108096,-0.0625703,
 0.3366305,-0.0332807,-0.5435863,0.1792679,0.109304,0.1951025,-2.078541
 1\Polar=64.4351675,1.7961156,58.5819689,-5.5907343,0.2300087,85.857057
 8\PG=C01 [X(C3H7O2)]\NImag=1\\0.60969193,-0.03615544,0.63513280,-0.141
 36411,0.08131775,0.05397613,-0.01167512,-0.00080689,0.01098420,0.20709
 149,-0.00164985,-0.00835430,0.01312803,0.17210177,0.14748430,0.0066028
 6,0.00517447,0.01621405,0.18633345,0.15417712,0.21513389,-0.31830159,-
 0.00419991,0.14377719,0.00117619,-0.00063347,-0.01001902,0.64874809,0.
 00395327,-0.06951557,-0.01475712,-0.00012581,-0.00149870,0.00124687,0.
 00277013,0.59401718,0.07515828,-0.01349424,0.00039446,-0.00232933,-0.0
 0120803,-0.00447848,0.00983848,0.03925039,0.29877717,-0.12514315,-0.06
 685559,0.01059707,-0.00311452,-0.00352993,-0.00294620,-0.01480276,-0.0
 2565909,0.00269586,0.53420782,-0.06870641,-0.19510132,0.00054122,-0.00
 353822,-0.00216364,-0.00297386,0.00009765,0.00426911,0.00252675,-0.034
 13585,0.51227410,-0.00808957,-0.00727437,-0.05159594,-0.00450562,-0.00
 471245,-0.00854965,-0.00120208,-0.00385151,-0.00778399,0.00209449,0.02
 258836,0.56044967,-0.00084197,0.00069401,-0.00647571,-0.19909671,-0.16
 588258,-0.18493686,0.00105161,-0.00004116,0.00109975,0.00118723,-0.000
 49071,0.00042903,0.19845213,0.00096515,-0.00205417,-0.00417213,-0.1653
 6269,-0.13906158,-0.15458185,0.00013003,0.00007646,0.00026719,-0.00127
 038,-0.00048841,-0.00109340,0.16477696,0.13977781,-0.00195779,-0.00056
 544,0.01194968,-0.18390262,-0.15363455,-0.18644422,-0.00192461,-0.0003
 2802,-0.00186097,-0.00211137,-0.00197853,0.00096457,0.18719749,0.15665
 762,0.18537498,-0.10131939,0.11053580,0.04076707,-0.00067336,-0.001317
 52,-0.00071043,-0.01135325,0.02610304,0.00812488,0.00808749,-0.0153813
 5,-0.00415194,0.00002220,0.00052269,-0.00065048,0.10665574,0.11549357,
 -0.30305254,-0.07436368,0.00006791,0.00139745,0.00019339,-0.00324272,0
 .00135636,0.00344440,0.01112756,-0.01500344,-0.00611478,-0.00069682,0.
 00014265,-0.00006193,-0.11401108,0.30877858,0.02985837,-0.07001128,-0.
 02969029,-0.00163292,-0.00081946,-0.01054664,0.00142215,0.00432263,-0.
 00361122,-0.00186733,0.00223460,0.00428746,0.00004898,0.00138975,-0.00
 190976,-0.04161619,0.07438936,0.05325406,-0.01145790,-0.02086545,-0.00
 910454,0.00129523,0.00104209,0.00069749,-0.12333932,-0.10713954,-0.024
 65268,-0.00265098,0.00212232,-0.00131091,-0.00016636,-0.00008604,0.000
 81809,0.00100985,-0.00014585,0.00048611,0.14105798,0.00291112,-0.00118
 893,-0.00233535,0.00078517,0.00048176,0.00051402,-0.10828598,-0.214344
 16,-0.04115997,-0.00035738,0.00041203,-0.00039173,-0.00014621,0.000102
 79,0.00053006,-0.00006076,0.00089755,-0.00041325,0.11926120,0.22042353
 ,0.00743366,0.01885233,0.00107113,-0.00047008,-0.00032569,0.00090471,-
 0.02824379,-0.04614815,-0.05647420,0.00306604,-0.00116208,0.00140928,0
 .00007365,0.00004014,-0.00016546,-0.00111950,-0.00063110,-0.00012508,0
 .04304816,0.05091666,0.06126880,-0.01061329,0.02372710,-0.00327838,0.0
 0075070,-0.00050411,0.00104474,-0.10285772,0.09594948,0.00397116,0.001
 36525,0.00147158,0.00120959,-0.00013023,-0.00005755,0.00025891,-0.0026
 8737,-0.00045621,-0.00152206,0.00915243,-0.01493387,0.00066978,0.11809
 447,-0.00191079,-0.00005596,0.00313294,-0.00045940,0.00076230,-0.00102
 311,0.09721297,-0.24150892,-0.00551285,-0.00081401,0.00050901,-0.00004
 149,0.00011949,-0.00016046,-0.00000509,-0.00050186,0.00064099,0.000593
 07,0.01174872,-0.02074694,-0.00137759,-0.11357540,0.25536208,0.0071128
 2,-0.01883659,-0.00343456,-0.00044440,0.00059103,0.00045452,0.00190192
 ,-0.00059710,-0.04467623,-0.00154128,0.00011169,0.00033378,-0.00002966
 ,-0.00008784,0.00010634,0.00343098,0.00023740,0.00101599,0.00386704,-0
 .00524603,0.00346474,0.00904332,-0.00393718,0.04622684,0.00828731,-0.0
 1484078,-0.00701653,0.00017357,-0.00003778,0.00006384,0.00138930,-0.00
 172085,-0.00042618,-0.10858466,0.09737632,0.05344681,0.00010452,0.0001
 5526,-0.00015180,-0.00130400,-0.00282279,0.00052138,0.00005111,0.00022
 826,-0.00006454,-0.00008861,0.00042817,-0.00026549,0.11596772,0.015224
 80,-0.02520110,-0.01359739,-0.00065435,0.00041452,-0.00043249,0.001919
 17,0.00050866,-0.00121863,0.09304081,-0.19462048,-0.08271646,0.0001621
 9,-0.00015687,-0.00016476,-0.00373014,-0.00294793,0.00115987,-0.000058
 41,0.00052656,-0.00028347,-0.00116124,0.00063543,0.00041702,-0.1029925
 9,0.21594234,0.00097876,0.00426632,-0.00117624,-0.00145414,-0.00051345
 ,-0.00113229,0.00049157,-0.00019226,0.00067628,0.05262325,-0.08689226,
 -0.09255386,-0.00055322,-0.00025437,-0.00050454,0.00050861,0.00067402,
 0.00069295,-0.00026610,0.00010081,-0.00000269,-0.00047611,-0.00003826,
 0.00005406,-0.05897578,0.09433480,0.09456605,-0.01897956,0.00297393,-0
 .00645110,-0.00013380,-0.00051765,-0.00038649,-0.00050161,-0.00345398,
 -0.00325215,-0.23788252,0.02986251,-0.10168861,0.00018017,-0.00004800,
 -0.00010676,0.00100118,-0.00043471,0.00039586,-0.00077093,-0.00034223,
 0.00120019,0.00055167,-0.00001485,-0.00022725,-0.01324397,0.00190268,-
 0.00692048,0.26255663,-0.02881833,0.00427989,-0.00953401,-0.00038357,-
 0.00013003,-0.00065050,-0.00108180,-0.00403634,-0.00238512,0.03136426,
 -0.05177760,0.01453172,0.00023551,0.00015942,-0.00032392,0.00093110,0.
 00101269,0.00005550,-0.00121669,0.00007819,0.00082909,-0.00024704,0.00
 019022,-0.00001876,0.02092697,-0.00307779,0.01260803,-0.02998577,0.054
 16333,0.00531093,0.00209232,-0.00107643,-0.00113966,-0.00175424,-0.001
 01449,0.00223314,0.00097614,0.00015857,-0.10421844,0.01318900,-0.09892
 636,0.00036550,-0.00076991,-0.00091435,-0.00041060,-0.00035253,-0.0000
 4821,0.00023023,0.00026012,-0.00020898,-0.00029426,0.00014131,0.000036
 58,0.01301401,-0.00088550,0.00611755,0.11433338,-0.01648294,0.10293926
 ,-0.00188619,-0.00333999,0.01935343,-0.00137971,-0.00083981,-0.0014553
 9,-0.00051083,0.00017368,0.00106021,-0.05092634,-0.00343197,0.03986010
 ,0.00029231,0.00126594,-0.00007959,0.00015872,-0.00009497,-0.00028242,
 0.00001558,-0.00007985,0.00005604,-0.00015672,-0.00000361,0.00006543,-
 0.00308402,-0.00399678,0.01517372,0.00489032,0.00554552,-0.02841818,0.
 05453121,-0.00252168,-0.00367366,0.02699980,-0.00153261,-0.00313323,-0
 .00135879,0.00012334,-0.00011132,0.00147972,-0.00392351,-0.05494473,0.
 04836891,0.00151710,0.00141448,-0.00055344,0.00007779,0.00017592,-0.00
 094600,-0.00006178,-0.00012554,-0.00008211,-0.00022508,0.00018946,-0.0
 0025069,0.00299221,0.00563366,-0.02441001,-0.00045721,-0.00185266,0.00
 457149,0.00774359,0.05909766,0.00522489,0.00536229,-0.00261306,-0.0021
 5929,-0.00223622,-0.00133009,-0.00002524,0.00025407,-0.00008708,0.0402
 5096,0.04800666,-0.29656695,0.00053090,0.00049228,-0.00317143,0.000208
 45,-0.00017646,0.00038423,-0.00016312,-0.00016108,0.00004434,0.0000466
 9,0.00006097,0.00000207,0.00074411,0.00175012,-0.00717138,0.00134019,0
 .00148014,-0.00922547,-0.04469840,-0.05451387,0.31840184,-0.01776108,0
 .00913321,-0.05178858,0.00558604,0.00176884,0.00571201,-0.08069811,0.0
 0919084,-0.07128828,-0.00174285,-0.00524586,0.02390869,-0.00105488,-0.
 00099137,0.00261053,0.00040219,-0.00478391,0.01418805,-0.01419668,0.00
 102055,-0.02564961,-0.01338058,0.00777058,-0.02291343,0.00033174,0.000
 34385,-0.00113009,0.00233242,0.00272983,-0.00100604,-0.00194435,-0.003
 73216,-0.00130014,0.12212615,0.00121459,-0.03121514,-0.00636006,-0.000
 09132,0.00380116,-0.00028526,0.01519059,-0.06921277,0.01801039,0.00101
 308,-0.00336463,0.02070720,-0.00024777,0.00024789,0.00042800,-0.003167
 71,0.00660173,-0.01195480,-0.00460057,0.01348316,-0.02062805,0.0100123
 4,0.00418279,0.02761703,0.00030760,0.00234300,0.00031664,0.00051528,0.
 00099069,-0.00098526,-0.00294174,-0.00267005,-0.00031892,-0.01720437,0
 .07481217,0.01373090,-0.00688357,0.00598108,0.00072040,-0.00269208,-0.
 01921131,-0.11824972,0.01982406,-0.18103433,0.00135694,0.00380846,-0.0
 1146802,0.00225015,0.00211250,-0.00342484,-0.00438086,0.00276190,-0.01
 370348,-0.01364977,-0.00261426,-0.01118659,-0.01067337,0.00800727,-0.0
 0358414,-0.00088982,0.00163688,0.00043412,0.00176323,-0.00010925,0.002
 16232,-0.00063496,0.00069500,0.00133299,0.12865689,-0.02654692,0.23370
 219\\0.00003345,-0.00019088,0.00499955,-0.00003132,0.00020000,-0.00000
 044,-0.00000247,-0.00000731,-0.00000004,0.00000087,-0.00000005,-0.0000
 0097,-0.00000043,-0.00000036,0.00000040,-0.00000009,-0.00000020,-0.000
 00003,0.00000047,-0.00000015,0.00000055,0.00000006,-0.00000047,-0.0000
 0010,-0.00000018,-0.00000009,-0.00000029,0.,-0.00000007,0.00000024,0.0
 0000016,0.00000074,0.00000014,-0.00000051,-0.00000116,0.00000099\\\@


 EDUCATION IS NOT TRAINING BUT RATHER THE PROCESS THAT EQUIPS YOU TO
 ENTERTAIN YOURSELF, A FRIEND, OR AN IDEA.  -- WALLACE STERLING
 Job cpu time:  0 days  0 hours  6 minutes 40.7 seconds.
 File lengths (MBytes):  RWF=   1248 Int=      0 D2E=      0 Chk=     32 Scr=     32
 Normal termination of Gaussian 09 at Fri May 18 18:21:17 2018.
