 Entering Gaussian System, Link 0=g09
 Input=OH-term-field-3.gjf
 Output=OH-term-field-3.log
 Initial command:
 /share/home/zxchen/g09/l1.exe /scratch/zxchen/Gau-6298.inp -scrdir=/scratch/zxchen/
 Entering Link 1 = /share/home/zxchen/g09/l1.exe PID=      6299.
  
 Copyright (c) 1988,1990,1992,1993,1995,1998,2003,2009,2010,
            Gaussian, Inc.  All Rights Reserved.
  
 This is part of the Gaussian(R) 09 program.  It is based on
 the Gaussian(R) 03 system (copyright 2003, Gaussian, Inc.),
 the Gaussian(R) 98 system (copyright 1998, Gaussian, Inc.),
 the Gaussian(R) 94 system (copyright 1995, Gaussian, Inc.),
 the Gaussian 92(TM) system (copyright 1992, Gaussian, Inc.),
 the Gaussian 90(TM) system (copyright 1990, Gaussian, Inc.),
 the Gaussian 88(TM) system (copyright 1988, Gaussian, Inc.),
 the Gaussian 86(TM) system (copyright 1986, Carnegie Mellon
 University), and the Gaussian 82(TM) system (copyright 1983,
 Carnegie Mellon University). Gaussian is a federally registered
 trademark of Gaussian, Inc.
  
 This software contains proprietary and confidential information,
 including trade secrets, belonging to Gaussian, Inc.
  
 This software is provided under written license and may be
 used, copied, transmitted, or stored only in accord with that
 written license.
  
 The following legend is applicable only to US Government
 contracts under FAR:
  
                    RESTRICTED RIGHTS LEGEND
  
 Use, reproduction and disclosure by the US Government is
 subject to restrictions as set forth in subparagraphs (a)
 and (c) of the Commercial Computer Software - Restricted
 Rights clause in FAR 52.227-19.
  
 Gaussian, Inc.
 340 Quinnipiac St., Bldg. 40, Wallingford CT 06492
  
  
 ---------------------------------------------------------------
 Warning -- This program may not be used in any manner that
 competes with the business of Gaussian, Inc. or will provide
 assistance to any competitor of Gaussian, Inc.  The licensee
 of this program is prohibited from giving any competitor of
 Gaussian, Inc. access to this program.  By using this program,
 the user acknowledges that Gaussian, Inc. is engaged in the
 business of creating and licensing software in the field of
 computational chemistry and represents and warrants to the
 licensee that it is not a competitor of Gaussian, Inc. and that
 it will not use this program in any manner prohibited above.
 ---------------------------------------------------------------
  

 Cite this work as:
 Gaussian 09, Revision B.01,
 M. J. Frisch, G. W. Trucks, H. B. Schlegel, G. E. Scuseria, 
 M. A. Robb, J. R. Cheeseman, G. Scalmani, V. Barone, B. Mennucci, 
 G. A. Petersson, H. Nakatsuji, M. Caricato, X. Li, H. P. Hratchian, 
 A. F. Izmaylov, J. Bloino, G. Zheng, J. L. Sonnenberg, M. Hada, 
 M. Ehara, K. Toyota, R. Fukuda, J. Hasegawa, M. Ishida, T. Nakajima, 
 Y. Honda, O. Kitao, H. Nakai, T. Vreven, J. A. Montgomery, Jr., 
 J. E. Peralta, F. Ogliaro, M. Bearpark, J. J. Heyd, E. Brothers, 
 K. N. Kudin, V. N. Staroverov, T. Keith, R. Kobayashi, J. Normand, 
 K. Raghavachari, A. Rendell, J. C. Burant, S. S. Iyengar, J. Tomasi, 
 M. Cossi, N. Rega, J. M. Millam, M. Klene, J. E. Knox, J. B. Cross, 
 V. Bakken, C. Adamo, J. Jaramillo, R. Gomperts, R. E. Stratmann, 
 O. Yazyev, A. J. Austin, R. Cammi, C. Pomelli, J. W. Ochterski, 
 R. L. Martin, K. Morokuma, V. G. Zakrzewski, G. A. Voth, 
 P. Salvador, J. J. Dannenberg, S. Dapprich, A. D. Daniels, 
 O. Farkas, J. B. Foresman, J. V. Ortiz, J. Cioslowski, 
 and D. J. Fox, Gaussian, Inc., Wallingford CT, 2010.
 
 ******************************************
 Gaussian 09:  EM64L-G09RevB.01 12-Aug-2010
                27-Apr-2018 
 ******************************************
 %chk=OH-term-field-3.chk
 %nprocshared=24
 Will use up to   24 processors via shared memory.
 ----------------------------------------------------------------------
 # opt=(calcfc,tight,ts,noeigen,z-matrix,maxcycle=300) freq b3lyp/6-31+
 +g(d,p) field=z-50
 ----------------------------------------------------------------------
 1/5=1,6=300,7=10,10=4,11=1,14=-1,18=40,26=3,38=1/1,3;
 2/12=2,17=6,18=5,29=3,40=1/2;
 3/5=1,6=6,7=1111,11=2,14=3,15=-50,16=1,25=1,30=1,71=2,74=-5/1,2,3;
 4//1;
 5/5=2,38=5/2;
 8/6=4,10=90,11=11/1;
 11/6=1,8=1,9=11,15=111,16=1/1,2,10;
 10/6=1,7=6,13=1/2;
 6/7=2,8=2,9=2,10=2,28=1/1;
 7/10=1,18=20,25=1/1,2,3,16;
 1/5=1,6=300,7=10,10=4,11=1,14=-1,18=40/3(2);
 2/29=3/2;
 99//99;
 2/29=3/2;
 3/5=1,6=6,7=1111,11=2,14=3,15=-50,16=1,25=1,30=1,71=1,74=-5/1,2,3;
 4/5=5,16=3/1;
 5/5=2,38=5/2;
 7//1,2,3,16;
 1/5=1,6=300,7=10,11=1,14=-1,18=40/3(-5);
 2/29=3/2;
 6/7=2,8=2,9=2,10=2,19=2,28=1/1;
 99/9=1/99;
 -------------------
 Title Card Required
 -------------------
 Symbolic Z-matrix:
 Charge = -1 Multiplicity = 1
 C
 O                    1    B1
 H                    1    B2       2    A1
 H                    2    B3       1    A2       3    D1       0
 H                    1    B4       2    A3       4    D2       0
 H                    1    B5       2    A4       4    D3       0
 H                    1    B6       2    A5       4    D4       0
 H                    1    B7       2    A6       4    D5       0
 H                    1    B8       2    A7       4    D6       0
 C                    1    B9       2    A8       4    D7       0
 C                    1    B10      2    A9       10   D8       0
 O                    11   B11      1    A10      2    D9       0
       Variables:
  B1                    2.24444                  
  B2                    1.07918                  
  B3                    0.96891                  
  B4                    1.07579                  
  B5                    2.16187                  
  B6                    3.46056                  
  B7                    2.99906                  
  B8                    2.74764                  
  B9                    2.56963                  
  B10                   1.44814                  
  B11                   1.41184                  
  A1                   91.14788                  
  A2                  110.49757                  
  A3                   78.11164                  
  A4                   92.52748                  
  A5                  106.19519                  
  A6                   75.98298                  
  A7                  103.02552                  
  A8                   96.92183                  
  A9                  106.56978                  
  A10                  74.75903                  
  D1                  -12.43629                  
  D2                 -131.83137                  
  D3                  133.79422                  
  D4                   88.27193                  
  D5                   80.49138                  
  D6                   56.8229                   
  D7                   79.85098                  
  D8                   29.87649                  
  D9                  172.18103                  
 

 GradGradGradGradGradGradGradGradGradGradGradGradGradGradGradGradGradGrad
 Berny optimization.
 Initialization pass.
                       ----------------------------
                       !    Initial Parameters    !
                       ! (Angstroms and Degrees)  !
 ----------------------                            ----------------------
 !      Name          Value   Derivative information (Atomic Units)     !
 ------------------------------------------------------------------------
 !       B1          2.2444   calculate D2E/DX2 analytically            !
 !       B2          1.0792   calculate D2E/DX2 analytically            !
 !       B3          0.9689   calculate D2E/DX2 analytically            !
 !       B4          1.0758   calculate D2E/DX2 analytically            !
 !       B5          2.1619   calculate D2E/DX2 analytically            !
 !       B6          3.4606   calculate D2E/DX2 analytically            !
 !       B7          2.9991   calculate D2E/DX2 analytically            !
 !       B8          2.7476   calculate D2E/DX2 analytically            !
 !       B9          2.5696   calculate D2E/DX2 analytically            !
 !       B10         1.4481   calculate D2E/DX2 analytically            !
 !       B11         1.4118   calculate D2E/DX2 analytically            !
 !       A1         91.1479   calculate D2E/DX2 analytically            !
 !       A2        110.4976   calculate D2E/DX2 analytically            !
 !       A3         78.1116   calculate D2E/DX2 analytically            !
 !       A4         92.5275   calculate D2E/DX2 analytically            !
 !       A5        106.1952   calculate D2E/DX2 analytically            !
 !       A6         75.983    calculate D2E/DX2 analytically            !
 !       A7        103.0255   calculate D2E/DX2 analytically            !
 !       A8         96.9218   calculate D2E/DX2 analytically            !
 !       A9        106.5698   calculate D2E/DX2 analytically            !
 !       A10        74.759    calculate D2E/DX2 analytically            !
 !       D1        -12.4363   calculate D2E/DX2 analytically            !
 !       D2       -131.8314   calculate D2E/DX2 analytically            !
 !       D3        133.7942   calculate D2E/DX2 analytically            !
 !       D4         88.2719   calculate D2E/DX2 analytically            !
 !       D5         80.4914   calculate D2E/DX2 analytically            !
 !       D6         56.8229   calculate D2E/DX2 analytically            !
 !       D7         79.851    calculate D2E/DX2 analytically            !
 !       D8         29.8765   calculate D2E/DX2 analytically            !
 !       D9        172.181    calculate D2E/DX2 analytically            !
 ------------------------------------------------------------------------
 Trust Radius=3.00D-01 FncErr=1.00D-07 GrdErr=1.00D-06
 Number of steps in this run=    100 maximum allowed number of steps=    100.
 Search for a saddle point of order  1.
 GradGradGradGradGradGradGradGradGradGradGradGradGradGradGradGradGradGrad

 ---------------------------------------------------------------------------------------------------
                            Z-MATRIX (ANGSTROMS AND DEGREES)
   CD    Cent   Atom    N1       Length/X        N2       Alpha/Y        N3        Beta/Z          J
 ---------------------------------------------------------------------------------------------------
      1      1  C 
      2      2  O        1   2.244436(     1)
      3      3  H        1   1.079177(     2)      2   91.148(    12)
      4      4  H        2   0.968915(     3)      1  110.498(    13)      3  -12.436(    22)      0
      5      5  H        1   1.075795(     4)      2   78.112(    14)      4 -131.831(    23)      0
      6      6  H        1   2.161873(     5)      2   92.527(    15)      4  133.794(    24)      0
      7      7  H        1   3.460560(     6)      2  106.195(    16)      4   88.272(    25)      0
      8      8  H        1   2.999059(     7)      2   75.983(    17)      4   80.491(    26)      0
      9      9  H        1   2.747638(     8)      2  103.026(    18)      4   56.823(    27)      0
     10     10  C        1   2.569631(     9)      2   96.922(    19)      4   79.851(    28)      0
     11     11  C        1   1.448135(    10)      2  106.570(    20)     10   29.876(    29)      0
     12     12  O       11   1.411841(    11)      1   74.759(    21)      2  172.181(    30)      0
 ---------------------------------------------------------------------------------------------------
                         Z-Matrix orientation:                         
 ---------------------------------------------------------------------
 Center     Atomic      Atomic             Coordinates (Angstroms)
 Number     Number       Type             X           Y           Z
 ---------------------------------------------------------------------
      1          6           0        0.000000    0.000000    0.000000
      2          8           0        0.000000    0.000000    2.244436
      3          1           0        1.078961    0.000000   -0.021619
      4          1           0        0.886275   -0.195449    2.583719
      5          1           0       -0.516705    0.917188    0.221620
      6          1           0       -1.795375   -1.200515   -0.095335
      7          1           0       -0.617482   -3.265365   -0.965186
      8          1           0       -0.148616   -2.905961    0.726403
      9          1           0        0.948015   -2.503454   -0.619277
     10          6           0       -0.101806   -2.548870   -0.309679
     11          6           0       -0.738889   -1.174983   -0.412983
     12          8           0       -0.501517   -0.449398   -1.600619
 ---------------------------------------------------------------------
                    Distance matrix (angstroms):
                    1          2          3          4          5
     1  C    0.000000
     2  O    2.244436   0.000000
     3  H    1.079177   2.509814   0.000000
     4  H    2.738483   0.968915   2.619755   0.000000
     5  H    1.075795   2.280352   1.856489   2.964090   0.000000
     6  H    2.161873   3.184202   3.115843   3.921573   2.494018
     7  H    3.460560   4.620127   3.798795   4.927515   4.348841
     8  H    2.999059   3.281939   3.242081   3.444924   3.873857
     9  H    2.747638   3.920059   2.577134   3.948402   3.814879
    10  C    2.569631   3.609793   2.823814   3.858322   3.531002
    11  C    1.448135   2.998070   2.199620   3.546952   2.197559
    12  O    1.736508   3.903579   2.278840   4.415783   2.277793
                    6          7          8          9         10
     6  H    0.000000
     7  H    2.531339   0.000000
     8  H    2.509106   1.791781   0.000000
     9  H    3.081940   1.775089   1.781983   0.000000
    10  C    2.175357   1.099535   1.096892   1.095462   0.000000
    11  C    1.103502   2.165494   2.154741   2.157090   1.517930
    12  O    2.122292   2.889098   3.402097   2.698763   2.496813
                   11         12
    11  C    0.000000
    12  O    1.411841   0.000000
 Stoichiometry    C3H7O2(1-)
 Framework group  C1[X(C3H7O2)]
 Deg. of freedom    30
 Full point group                 C1      NOp   1
 Largest Abelian subgroup         C1      NOp   1
 Largest concise Abelian subgroup C1      NOp   1
                         Standard orientation:                         
 ---------------------------------------------------------------------
 Center     Atomic      Atomic             Coordinates (Angstroms)
 Number     Number       Type             X           Y           Z
 ---------------------------------------------------------------------
      1          6           0        0.367065   -0.765674    0.257516
      2          8           0        2.336378    0.228341   -0.156290
      3          1           0        0.511352   -0.657408    1.321510
      4          1           0        2.679197    0.649329    0.646231
      5          1           0        0.900874   -1.540166   -0.264542
      6          1           0       -0.534758    0.064362   -1.523341
      7          1           0       -2.059752    1.645287   -0.265268
      8          1           0       -0.340961    2.125830   -0.106159
      9          1           0       -1.172521    1.291434    1.230911
     10          6           0       -1.080396    1.354306    0.141142
     11          6           0       -0.641990    0.016347   -0.426112
     12          8           0       -1.317816   -1.129408    0.046963
 ---------------------------------------------------------------------
 Rotational constants (GHZ):      7.0413843      3.1544538      2.3791681
 Standard basis: 6-31++G(d,p) (6D, 7F)
 The following finite field(s) will be applied:
 An electric field of              0.0000  0.0000 -0.0050
 There are   137 symmetry adapted basis functions of A   symmetry.
 Integral buffers will be    131072 words long.
 Raffenetti 2 integral format.
 Two-electron integral symmetry is turned on.
   137 basis functions,   216 primitive gaussians,   137 cartesian basis functions
    21 alpha electrons       21 beta electrons
       nuclear repulsion energy       174.5654327292 Hartrees.
 NAtoms=   12 NActive=   12 NUniq=   12 SFac= 1.00D+00 NAtFMM=   50 NAOKFM=F Big=F
 One-electron integrals computed using PRISM.
 PrsmSu:  requested number of processors reduced to:  10 ShMem   1 Linda.
 NBasis=   137 RedAO= T  NBF=   137
 NBsUse=   137 1.00D-06 NBFU=   137
 The nuclear repulsion energy is now       174.5654327292 hartrees.
 Harris functional with IExCor=  402 diagonalized for initial guess.
 ExpMin= 3.60D-02 ExpMax= 5.48D+03 ExpMxC= 8.25D+02 IAcc=3 IRadAn=         0 AccDes= 0.00D+00
 HarFok:  IExCor=  402 AccDes= 0.00D+00 IRadAn=         0 IDoV= 1
 ScaDFX=  1.000000  1.000000  1.000000  1.000000
 FoFCou: FMM=F IPFlag=           0 FMFlag=      100000 FMFlg1=           0
         NFxFlg=           0 DoJE=T BraDBF=F KetDBF=T FulRan=T
         Omega=  0.000000  0.000000  1.000000  0.000000  0.000000 ICntrl=     500 IOpCl=  0
         NMat0=    1 NMatS0=    1 NMatT0=    0 NMatD0=    1 NMtDS0=    0 NMtDT0=    0
         I1Cent=           4 NGrid=           0.
 Petite list used in FoFCou.
 Initial guess orbital symmetries:
       Occupied  (A) (A) (A) (A) (A) (A) (A) (A) (A) (A) (A) (A)
                 (A) (A) (A) (A) (A) (A) (A) (A) (A)
       Virtual   (A) (A) (A) (A) (A) (A) (A) (A) (A) (A) (A) (A)
                 (A) (A) (A) (A) (A) (A) (A) (A) (A) (A) (A) (A)
                 (A) (A) (A) (A) (A) (A) (A) (A) (A) (A) (A) (A)
                 (A) (A) (A) (A) (A) (A) (A) (A) (A) (A) (A) (A)
                 (A) (A) (A) (A) (A) (A) (A) (A) (A) (A) (A) (A)
                 (A) (A) (A) (A) (A) (A) (A) (A) (A) (A) (A) (A)
                 (A) (A) (A) (A) (A) (A) (A) (A) (A) (A) (A) (A)
                 (A) (A) (A) (A) (A) (A) (A) (A) (A) (A) (A) (A)
                 (A) (A) (A) (A) (A) (A) (A) (A) (A) (A) (A) (A)
                 (A) (A) (A) (A) (A) (A) (A) (A)
 The electronic state of the initial guess is 1-A.
 Requested convergence on RMS density matrix=1.00D-08 within 128 cycles.
 Requested convergence on MAX density matrix=1.00D-06.
 Requested convergence on             energy=1.00D-06.
 No special actions if energy rises.
 SCF Done:  E(RB3LYP) =  -268.946294520     A.U. after   16 cycles
             Convg  =    0.5852D-08             -V/T =  2.0095
 Range of M.O.s used for correlation:     1   137
 NBasis=   137 NAE=    21 NBE=    21 NFC=     0 NFV=     0
 NROrb=    137 NOA=    21 NOB=    21 NVA=   116 NVB=   116

 **** Warning!!: The largest alpha MO coefficient is  0.32055086D+02

 PrsmSu:  requested number of processors reduced to:  10 ShMem   1 Linda.
 PrsmSu:  requested number of processors reduced to:  18 ShMem   1 Linda.
 Symmetrizing basis deriv contribution to polar:
 IMax=3 JMax=2 DiffMx= 0.00D+00
 G2DrvN: will do     4 centers at a time, making    4 passes doing MaxLOS=2.
 Estimated number of processors is:   15
 Calling FoFCou, ICntrl=  3107 FMM=F I1Cent=   0 AccDes= 0.00D+00.
 CoulSu:  requested number of processors reduced to:  15 ShMem   1 Linda.
 Calling FoFCou, ICntrl=  3107 FMM=F I1Cent=   0 AccDes= 0.00D+00.
 CoulSu:  requested number of processors reduced to:  15 ShMem   1 Linda.
 Calling FoFCou, ICntrl=  3107 FMM=F I1Cent=   0 AccDes= 0.00D+00.
 CoulSu:  requested number of processors reduced to:  15 ShMem   1 Linda.
 Calling FoFCou, ICntrl=  3107 FMM=F I1Cent=   0 AccDes= 0.00D+00.
 CoulSu:  requested number of processors reduced to:  15 ShMem   1 Linda.
 FoFDir/FoFCou used for L=0 through L=2.
 End of G2Drv Frequency-dependent properties file   721 does not exist.
 End of G2Drv Frequency-dependent properties file   722 does not exist.
          IDoAtm=111111111111
          Differentiating once with respect to nuclear coordinates.
 PrRfSu:  requested number of processors reduced to:  15 ShMem   1 Linda.
 CalDSu:  requested number of processors reduced to:  19 ShMem   1 Linda.
          There are    39 degrees of freedom in the 1st order CPHF.  IDoFFX=5.
     33 vectors produced by pass  0 Test12= 6.25D-11 2.56D-07 XBig12= 1.50D-01 1.21D-01.
 AX will form    33 AO Fock derivatives at one time.
 PrRfSu:  requested number of processors reduced to:  16 ShMem   1 Linda.
 CalDSu:  requested number of processors reduced to:  20 ShMem   1 Linda.
     33 vectors produced by pass  1 Test12= 6.25D-11 2.56D-07 XBig12= 2.49D-02 2.82D-02.
 PrRfSu:  requested number of processors reduced to:  16 ShMem   1 Linda.
 CalDSu:  requested number of processors reduced to:  20 ShMem   1 Linda.
     33 vectors produced by pass  2 Test12= 6.25D-11 2.56D-07 XBig12= 3.23D-04 2.84D-03.
 PrRfSu:  requested number of processors reduced to:  16 ShMem   1 Linda.
 CalDSu:  requested number of processors reduced to:  20 ShMem   1 Linda.
     33 vectors produced by pass  3 Test12= 6.25D-11 2.56D-07 XBig12= 1.71D-06 2.29D-04.
 PrRfSu:  requested number of processors reduced to:  16 ShMem   1 Linda.
 CalDSu:  requested number of processors reduced to:  20 ShMem   1 Linda.
     25 vectors produced by pass  4 Test12= 6.25D-11 2.56D-07 XBig12= 4.50D-09 1.10D-05.
 PrRfSu:  requested number of processors reduced to:  16 ShMem   1 Linda.
 CalDSu:  requested number of processors reduced to:  22 ShMem   1 Linda.
      1 vectors produced by pass  5 Test12= 6.25D-11 2.56D-07 XBig12= 6.45D-12 3.94D-07.
 Inverted reduced A of dimension   158 with in-core refinement.
 End of Minotr Frequency-dependent properties file   721 does not exist.
 End of Minotr Frequency-dependent properties file   722 does not exist.

 **********************************************************************

            Population analysis using the SCF density.

 **********************************************************************

 Orbital symmetries:
       Occupied  (A) (A) (A) (A) (A) (A) (A) (A) (A) (A) (A) (A)
                 (A) (A) (A) (A) (A) (A) (A) (A) (A)
       Virtual   (A) (A) (A) (A) (A) (A) (A) (A) (A) (A) (A) (A)
                 (A) (A) (A) (A) (A) (A) (A) (A) (A) (A) (A) (A)
                 (A) (A) (A) (A) (A) (A) (A) (A) (A) (A) (A) (A)
                 (A) (A) (A) (A) (A) (A) (A) (A) (A) (A) (A) (A)
                 (A) (A) (A) (A) (A) (A) (A) (A) (A) (A) (A) (A)
                 (A) (A) (A) (A) (A) (A) (A) (A) (A) (A) (A) (A)
                 (A) (A) (A) (A) (A) (A) (A) (A) (A) (A) (A) (A)
                 (A) (A) (A) (A) (A) (A) (A) (A) (A) (A) (A) (A)
                 (A) (A) (A) (A) (A) (A) (A) (A) (A) (A) (A) (A)
                 (A) (A) (A) (A) (A) (A) (A) (A)
 The electronic state is 1-A.
 Alpha  occ. eigenvalues --  -18.95318 -18.86735 -10.07135 -10.06530 -10.03446
 Alpha  occ. eigenvalues --   -0.82572  -0.66717  -0.58342  -0.50653  -0.41356
 Alpha  occ. eigenvalues --   -0.32430  -0.28452  -0.26867  -0.23836  -0.20645
 Alpha  occ. eigenvalues --   -0.18075  -0.16427  -0.11646  -0.07917  -0.02131
 Alpha  occ. eigenvalues --   -0.01748
 Alpha virt. eigenvalues --    0.09763   0.12001   0.13606   0.14409   0.15947
 Alpha virt. eigenvalues --    0.16522   0.18057   0.18806   0.20987   0.21668
 Alpha virt. eigenvalues --    0.23115   0.23746   0.24328   0.25346   0.25685
 Alpha virt. eigenvalues --    0.26788   0.28047   0.29047   0.30010   0.30745
 Alpha virt. eigenvalues --    0.33804   0.34681   0.37214   0.37921   0.38252
 Alpha virt. eigenvalues --    0.39777   0.41558   0.42614   0.44493   0.46552
 Alpha virt. eigenvalues --    0.47612   0.48178   0.49645   0.50350   0.52806
 Alpha virt. eigenvalues --    0.53196   0.56492   0.58403   0.78561   0.82258
 Alpha virt. eigenvalues --    0.84551   0.89264   0.91503   0.91714   0.95468
 Alpha virt. eigenvalues --    1.02060   1.05845   1.10996   1.12245   1.15951
 Alpha virt. eigenvalues --    1.19682   1.23908   1.25509   1.26074   1.29518
 Alpha virt. eigenvalues --    1.35519   1.41348   1.43368   1.47624   1.48312
 Alpha virt. eigenvalues --    1.49558   1.52765   1.57316   1.59988   1.63132
 Alpha virt. eigenvalues --    1.71406   1.78436   1.83478   1.85481   1.87181
 Alpha virt. eigenvalues --    1.90445   1.95906   1.99644   2.01711   2.04578
 Alpha virt. eigenvalues --    2.12083   2.14491   2.15469   2.19066   2.23301
 Alpha virt. eigenvalues --    2.25324   2.26874   2.28134   2.32827   2.37233
 Alpha virt. eigenvalues --    2.42091   2.48195   2.53763   2.57677   2.69487
 Alpha virt. eigenvalues --    2.74559   2.78182   2.80317   2.81027   2.85437
 Alpha virt. eigenvalues --    2.85900   2.90724   2.92276   2.93725   2.97094
 Alpha virt. eigenvalues --    3.01619   3.03076   3.15548   3.22676   3.39196
 Alpha virt. eigenvalues --    3.50091   3.59761   3.62642   3.64019   3.70312
 Alpha virt. eigenvalues --    3.73463   4.40184   4.42504   4.56377   4.68518
 Alpha virt. eigenvalues --    4.82223
          Condensed to atoms (all electrons):
              1          2          3          4          5          6
     1  C    7.160938   0.260767   0.353648  -0.037559   0.311922   0.024167
     2  O    0.260767   8.917031  -0.015140   0.158962  -0.013201  -0.010309
     3  H    0.353648  -0.015140   0.520358   0.002369  -0.025353   0.011246
     4  H   -0.037559   0.158962   0.002369   0.586070  -0.006362   0.005739
     5  H    0.311922  -0.013201  -0.025353  -0.006362   0.518287  -0.026059
     6  H    0.024167  -0.010309   0.011246   0.005739  -0.026059   0.849796
     7  H   -0.033686  -0.006649   0.000362   0.002390  -0.000763  -0.010132
     8  H    0.197235   0.049176  -0.001890  -0.007616  -0.012540   0.021279
     9  H   -0.051765  -0.008898   0.008698   0.000827   0.002326   0.014513
    10  C    1.003200   0.174287  -0.019909  -0.039078  -0.013546  -0.197879
    11  C   -3.125356  -0.570492   0.035290   0.095320   0.121390   0.350659
    12  O    0.210502   0.050346  -0.035107  -0.008558  -0.033252  -0.069717
              7          8          9         10         11         12
     1  C   -0.033686   0.197235  -0.051765   1.003200  -3.125356   0.210502
     2  O   -0.006649   0.049176  -0.008898   0.174287  -0.570492   0.050346
     3  H    0.000362  -0.001890   0.008698  -0.019909   0.035290  -0.035107
     4  H    0.002390  -0.007616   0.000827  -0.039078   0.095320  -0.008558
     5  H   -0.000763  -0.012540   0.002326  -0.013546   0.121390  -0.033252
     6  H   -0.010132   0.021279   0.014513  -0.197879   0.350659  -0.069717
     7  H    0.653351  -0.059602  -0.032808   0.301555   0.096672  -0.020070
     8  H   -0.059602   0.616353  -0.019538   0.482128  -0.397916   0.024469
     9  H   -0.032808  -0.019538   0.525903   0.384000   0.006023   0.013399
    10  C    0.301555   0.482128   0.384000   7.145727  -2.697791   0.070356
    11  C    0.096672  -0.397916   0.006023  -2.697791  12.073486  -0.366551
    12  O   -0.020070   0.024469   0.013399   0.070356  -0.366551   8.692445
 Mulliken atomic charges:
              1
     1  C   -0.274013
     2  O   -0.985881
     3  H    0.165428
     4  H    0.247497
     5  H    0.177150
     6  H    0.036697
     7  H    0.109383
     8  H    0.108462
     9  H    0.157321
    10  C   -0.593050
    11  C    0.379268
    12  O   -0.528262
 Sum of Mulliken atomic charges =  -1.00000
 Mulliken charges with hydrogens summed into heavy atoms:
              1
     1  C    0.068565
     2  O   -0.738383
    10  C   -0.217884
    11  C    0.415965
    12  O   -0.528262
 Sum of Mulliken charges with hydrogens summed into heavy atoms =  -1.00000
 APT atomic charges:
              1
     1  C   -0.584341
     2  O   -1.272198
     3  H    0.394827
     4  H    0.451745
     5  H    0.468521
     6  H    0.243380
     7  H    0.424537
     8  H    0.301414
     9  H    0.318112
    10  C   -1.049383
    11  C   -0.086611
    12  O   -0.610002
 Sum of APT charges=  -1.00000
 APT Atomic charges with hydrogens summed into heavy atoms:
              1
     1  C    0.279006
     2  O   -0.820453
     3  H    0.000000
     4  H    0.000000
     5  H    0.000000
     6  H    0.000000
     7  H    0.000000
     8  H    0.000000
     9  H    0.000000
    10  C   -0.005320
    11  C    0.156770
    12  O   -0.610002
 Sum of APT charges=  -1.00000
 Electronic spatial extent (au):  <R**2>=            556.5341
 Charge=             -1.0000 electrons
 Dipole moment (field-independent basis, Debye):
    X=             -4.1654    Y=              1.5315    Z=              2.1248  Tot=              4.9205
 Quadrupole moment (field-independent basis, Debye-Ang):
   XX=            -62.1125   YY=            -40.3246   ZZ=            -34.3896
   XY=             -5.6805   XZ=              5.6852   YZ=              1.4899
 Traceless Quadrupole moment (field-independent basis, Debye-Ang):
   XX=            -16.5036   YY=              5.2843   ZZ=             11.2193
   XY=             -5.6805   XZ=              5.6852   YZ=              1.4899
 Octapole moment (field-independent basis, Debye-Ang**2):
  XXX=            -47.2252  YYY=             -2.6628  ZZZ=              4.5744  XYY=              6.5837
  XXY=              4.3054  XXZ=             13.4572  XZZ=             -0.5670  YZZ=             -1.6791
  YYZ=              1.1376  XYZ=              3.1804
 Hexadecapole moment (field-independent basis, Debye-Ang**3):
 XXXX=           -637.0330 YYYY=           -251.8694 ZZZZ=            -80.9684 XXXY=             -3.0668
 XXXZ=             42.2473 YYYX=             -2.2779 YYYZ=              1.5451 ZZZX=              5.0555
 ZZZY=              2.5007 XXYY=           -134.9050 XXZZ=            -95.8744 YYZZ=            -54.6448
 XXYZ=              8.6250 YYXZ=              2.0282 ZZXY=              0.0145
 N-N= 1.745654327292D+02 E-N=-9.866280580562D+02  KE= 2.664167067407D+02
  Exact polarizability:   0.000   0.000   0.000   0.000   0.000   0.000
 Approx polarizability: 120.836  15.063  84.574  -0.347  -4.823  72.376
 PrsmSu:  requested number of processors reduced to:  10 ShMem   1 Linda.
 PrsmSu:  requested number of processors reduced to:  11 ShMem   1 Linda.
 Calling FoFJK, ICntrl=    100147 FMM=F ISym2X=0 I1Cent= 0 IOpClX= 0 NMat=1 NMatS=1 NMatT=0.
 CoulSu:  requested number of processors reduced to:  11 ShMem   1 Linda.
 ***** Axes restored to original set *****
 -------------------------------------------------------------------
 Center     Atomic                   Forces (Hartrees/Bohr)
 Number     Number              X              Y              Z
 -------------------------------------------------------------------
      1        6          -0.003476761    0.000741237    0.000927731
      2        8          -0.001434487    0.000013910   -0.000000474
      3        1          -0.000000309   -0.000895601    0.000002079
      4        1           0.000000442    0.000000254   -0.000000133
      5        1           0.000001906    0.000001209   -0.000000875
      6        1           0.000000573   -0.000000324    0.000000234
      7        1           0.000000082    0.000000837    0.000001483
      8        1          -0.000002802    0.000007164   -0.000008964
      9        1           0.000001422   -0.000002387   -0.000000142
     10        6           0.000005909   -0.000004882    0.000004481
     11        6          -0.000007310   -0.000005601    0.000000071
     12        8          -0.000000836    0.000000098   -0.000003643
 -------------------------------------------------------------------
 Cartesian Forces:  Max     0.003476761 RMS     0.000674091
 -----------------------------------------------------------------------------------------------
                       Internal Coordinate Forces (Hartree/Bohr or radian)
  Cent   Atom   N1       Length/X         N2         Alpha/Y        N3         Beta/Z          J
 -----------------------------------------------------------------------------------------------
      1  C 
      2  O        1  -0.000001(     1)
      3  H        1   0.000000(     2)      2  -0.000004(    12)
      4  H        2   0.000000(     3)      1   0.000000(    13)      3   0.000003(    22)     0
      5  H        1   0.000000(     4)      2   0.000002(    14)      4   0.000004(    23)     0
      6  H        1   0.000000(     5)      2  -0.000001(    15)      4  -0.000002(    24)     0
      7  H        1  -0.000001(     6)      2  -0.000008(    16)      4   0.000000(    25)     0
      8  H        1  -0.000009(     7)      2   0.000040(    17)      4   0.000017(    26)     0
      9  H        1   0.000003(     8)      2  -0.000002(    18)      4  -0.000002(    27)     0
     10  C        1   0.000004(     9)      2  -0.000024(    19)      4  -0.000020(    28)     0
     11  C        1   0.000010(    10)      2  -0.000004(    20)     10   0.000009(    29)     0
     12  O       11   0.000003(    11)      1   0.000006(    21)      2  -0.000001(    30)     0
 -----------------------------------------------------------------------------------------------
 Internal  Forces:  Max     0.000039667 RMS     0.000010566

 GradGradGradGradGradGradGradGradGradGradGradGradGradGradGradGradGradGrad
 Berny optimization.
 Search for a saddle point.
 Step number   1 out of a maximum of  100
 All quantities printed in internal units (Hartrees-Bohrs-Radians)
 Swaping is turned off.
 Second derivative matrix not updated -- analytic derivatives used.
 ITU=  0
     Eigenvalues ---   -0.05699   0.00036   0.00903   0.01378   0.01566
     Eigenvalues ---    0.02197   0.03070   0.06674   0.07913   0.09010
     Eigenvalues ---    0.11460   0.16207   0.24730   0.27339   0.29073
     Eigenvalues ---    0.36552   0.37934   0.38798   0.41516   0.51383
     Eigenvalues ---    0.58856   0.89764   1.24437   2.63277   2.91135
     Eigenvalues ---    3.63179   5.39843   6.96389  17.62326  19.93993
 Eigenvectors required to have negative eigenvalues:
                          B1        A10       A3        A1        A2
   1                    0.66780  -0.50669  -0.34395  -0.28316   0.19647
                          A9        B11       D1        B7        B10
   1                   -0.17473   0.08507   0.07673   0.05792  -0.05766
 RFO step:  Lambda0=2.060503018D-10 Lambda= 0.00000000D+00.
 Linear search not attempted -- option 19 set.
 Variable       Old X    -DE/DX   Delta X   Delta X   Delta X     New X
                                 (Linear)    (Quad)   (Total)
    B1        4.24137   0.00000   0.00000   0.00007   0.00007   4.24144
    B2        2.03935   0.00000   0.00000   0.00000   0.00000   2.03935
    B3        1.83098   0.00000   0.00000   0.00000   0.00000   1.83098
    B4        2.03296   0.00000   0.00000   0.00000   0.00000   2.03296
    B5        4.08535   0.00000   0.00000   0.00004   0.00004   4.08539
    B6        6.53951   0.00000   0.00000   0.00001   0.00001   6.53952
    B7        5.66740  -0.00001   0.00000  -0.00019  -0.00019   5.66722
    B8        5.19228   0.00000   0.00000   0.00004   0.00004   5.19232
    B9        4.85590   0.00000   0.00000  -0.00003  -0.00003   4.85587
   B10        2.73658   0.00001   0.00000   0.00002   0.00002   2.73660
   B11        2.66799   0.00000   0.00000   0.00000   0.00000   2.66800
    A1        1.59083   0.00000   0.00000  -0.00010  -0.00010   1.59073
    A2        1.92855   0.00000   0.00000  -0.00002  -0.00002   1.92853
    A3        1.36331   0.00000   0.00000   0.00002   0.00002   1.36333
    A4        1.61491   0.00000   0.00000   0.00006   0.00006   1.61496
    A5        1.85346  -0.00001   0.00000  -0.00002  -0.00002   1.85344
    A6        1.32615   0.00004   0.00000  -0.00002  -0.00002   1.32613
    A7        1.79813   0.00000   0.00000  -0.00004  -0.00004   1.79809
    A8        1.69161  -0.00002   0.00000  -0.00001  -0.00001   1.69159
    A9        1.85999   0.00000   0.00000   0.00003   0.00003   1.86003
   A10        1.30479   0.00001   0.00000  -0.00002  -0.00002   1.30477
    D1       -0.21705   0.00000   0.00000   0.00021   0.00021  -0.21685
    D2       -2.30089   0.00000   0.00000   0.00019   0.00019  -2.30070
    D3        2.33515   0.00000   0.00000   0.00015   0.00015   2.33530
    D4        1.54064   0.00000   0.00000   0.00013   0.00013   1.54077
    D5        1.40484   0.00002   0.00000   0.00018   0.00018   1.40502
    D6        0.99175   0.00000   0.00000   0.00014   0.00014   0.99189
    D7        1.39366  -0.00002   0.00000   0.00014   0.00014   1.39381
    D8        0.52144   0.00001   0.00000   0.00000   0.00000   0.52145
    D9        3.00513   0.00000   0.00000   0.00005   0.00005   3.00518
         Item               Value     Threshold  Converged?
 Maximum Force            0.000040     0.000015     NO 
 RMS     Force            0.000011     0.000010     NO 
 Maximum Displacement     0.000206     0.000060     NO 
 RMS     Displacement     0.000092     0.000040     NO 
 Predicted change in Energy=-1.310894D-09
 GradGradGradGradGradGradGradGradGradGradGradGradGradGradGradGradGradGrad

 ---------------------------------------------------------------------------------------------------
                            Z-MATRIX (ANGSTROMS AND DEGREES)
   CD    Cent   Atom    N1       Length/X        N2       Alpha/Y        N3        Beta/Z          J
 ---------------------------------------------------------------------------------------------------
      1      1  C 
      2      2  O        1   2.244472(     1)
      3      3  H        1   1.079176(     2)      2   91.142(    12)
      4      4  H        2   0.968915(     3)      1  110.497(    13)      3  -12.424(    22)      0
      5      5  H        1   1.075795(     4)      2   78.113(    14)      4 -131.821(    23)      0
      6      6  H        1   2.161893(     5)      2   92.531(    15)      4  133.803(    24)      0
      7      7  H        1   3.460566(     6)      2  106.194(    16)      4   88.280(    25)      0
      8      8  H        1   2.998961(     7)      2   75.982(    17)      4   80.502(    26)      0
      9      9  H        1   2.747658(     8)      2  103.023(    18)      4   56.831(    27)      0
     10     10  C        1   2.569617(     9)      2   96.921(    19)      4   79.859(    28)      0
     11     11  C        1   1.448144(    10)      2  106.572(    20)     10   29.877(    29)      0
     12     12  O       11   1.411844(    11)      1   74.758(    21)      2  172.184(    30)      0
 ---------------------------------------------------------------------------------------------------
                         Z-Matrix orientation:                         
 ---------------------------------------------------------------------
 Center     Atomic      Atomic             Coordinates (Angstroms)
 Number     Number       Type             X           Y           Z
 ---------------------------------------------------------------------
      1          6           0        0.000000    0.000000    0.000000
      2          8           0        0.000000    0.000000    2.244472
      3          1           0        1.078962    0.000000   -0.021513
      4          1           0        0.886321   -0.195267    2.583738
      5          1           0       -0.516724    0.917184    0.221596
      6          1           0       -1.795321   -1.200622   -0.095456
      7          1           0       -0.617252   -3.265431   -0.965131
      8          1           0       -0.148535   -2.905853    0.726447
      9          1           0        0.948198   -2.503432   -0.619171
     10          6           0       -0.101645   -2.548866   -0.309650
     11          6           0       -0.738816   -1.175023   -0.413030
     12          8           0       -0.501395   -0.449405   -1.600638
 ---------------------------------------------------------------------
                    Distance matrix (angstroms):
                    1          2          3          4          5
     1  C    0.000000
     2  O    2.244472   0.000000
     3  H    1.079176   2.509750   0.000000
     4  H    2.738503   0.968915   2.619652   0.000000
     5  H    1.075795   2.280407   1.856486   2.964085   0.000000
     6  H    2.161893   3.184326   3.115840   3.921738   2.494079
     7  H    3.460566   4.620129   3.798762   4.927587   4.348872
     8  H    2.998961   3.281835   3.241940   3.444957   3.873764
     9  H    2.747658   3.920038   2.577105   3.948428   3.814905
    10  C    2.569617   3.609790   2.823751   3.858393   3.531007
    11  C    1.448144   2.998140   2.199609   3.547057   2.197590
    12  O    1.736492   3.903618   2.278844   4.415807   2.277792
                    6          7          8          9         10
     6  H    0.000000
     7  H    2.531328   0.000000
     8  H    2.509032   1.791767   0.000000
     9  H    3.081962   1.775095   1.781980   0.000000
    10  C    2.175358   1.099533   1.096875   1.095462   0.000000
    11  C    1.103500   2.165502   2.154672   2.157123   1.517932
    12  O    2.122297   2.889169   3.402054   2.698820   2.496836
                   11         12
    11  C    0.000000
    12  O    1.411844   0.000000
 Stoichiometry    C3H7O2(1-)
 Framework group  C1[X(C3H7O2)]
 Deg. of freedom    30
 Full point group                 C1      NOp   1
 Largest Abelian subgroup         C1      NOp   1
 Largest concise Abelian subgroup C1      NOp   1
                         Standard orientation:                         
 ---------------------------------------------------------------------
 Center     Atomic      Atomic             Coordinates (Angstroms)
 Number     Number       Type             X           Y           Z
 ---------------------------------------------------------------------
      1          6           0        0.367038   -0.765682    0.257480
      2          8           0        2.336402    0.228326   -0.156290
      3          1           0        0.511381   -0.657341    1.321458
      4          1           0        2.679270    0.649170    0.646286
      5          1           0        0.900835   -1.540200   -0.264552
      6          1           0       -0.534864    0.064358   -1.523360
      7          1           0       -2.059694    1.645386   -0.265241
      8          1           0       -0.340858    2.125748   -0.106224
      9          1           0       -1.172441    1.291509    1.230925
     10          6           0       -1.080355    1.354330    0.141150
     11          6           0       -0.642037    0.016349   -0.426126
     12          8           0       -1.317839   -1.129402    0.047001
 ---------------------------------------------------------------------
 Rotational constants (GHZ):      7.0413258      3.1544104      2.3791372
 Standard basis: 6-31++G(d,p) (6D, 7F)
 The following finite field(s) will be applied:
 An electric field of              0.0000  0.0000 -0.0050
 There are   137 symmetry adapted basis functions of A   symmetry.
 Integral buffers will be    131072 words long.
 Raffenetti 2 integral format.
 Two-electron integral symmetry is turned on.
   137 basis functions,   216 primitive gaussians,   137 cartesian basis functions
    21 alpha electrons       21 beta electrons
       nuclear repulsion energy       174.5649105286 Hartrees.
 NAtoms=   12 NActive=   12 NUniq=   12 SFac= 1.00D+00 NAtFMM=   50 NAOKFM=F Big=F
 One-electron integrals computed using PRISM.
 PrsmSu:  requested number of processors reduced to:  10 ShMem   1 Linda.
 NBasis=   137 RedAO= T  NBF=   137
 NBsUse=   137 1.00D-06 NBFU=   137
 The nuclear repulsion energy is now       174.5649105286 hartrees.
 Initial guess read from the read-write file.
 B after Tr=     0.000000    0.000000    0.000000
         Rot=    1.000000    0.000000    0.000000    0.000000 Ang=   0.00 deg.
 Initial guess orbital symmetries:
       Occupied  (A) (A) (A) (A) (A) (A) (A) (A) (A) (A) (A) (A)
                 (A) (A) (A) (A) (A) (A) (A) (A) (A)
       Virtual   (A) (A) (A) (A) (A) (A) (A) (A) (A) (A) (A) (A)
                 (A) (A) (A) (A) (A) (A) (A) (A) (A) (A) (A) (A)
                 (A) (A) (A) (A) (A) (A) (A) (A) (A) (A) (A) (A)
                 (A) (A) (A) (A) (A) (A) (A) (A) (A) (A) (A) (A)
                 (A) (A) (A) (A) (A) (A) (A) (A) (A) (A) (A) (A)
                 (A) (A) (A) (A) (A) (A) (A) (A) (A) (A) (A) (A)
                 (A) (A) (A) (A) (A) (A) (A) (A) (A) (A) (A) (A)
                 (A) (A) (A) (A) (A) (A) (A) (A) (A) (A) (A) (A)
                 (A) (A) (A) (A) (A) (A) (A) (A) (A) (A) (A) (A)
                 (A) (A) (A) (A) (A) (A) (A) (A)
 Requested convergence on RMS density matrix=1.00D-08 within 128 cycles.
 Requested convergence on MAX density matrix=1.00D-06.
 Requested convergence on             energy=1.00D-06.
 No special actions if energy rises.
 SCF Done:  E(RB3LYP) =  -268.946294819     A.U. after    7 cycles
             Convg  =    0.6063D-08             -V/T =  2.0095
 PrsmSu:  requested number of processors reduced to:  10 ShMem   1 Linda.
 PrsmSu:  requested number of processors reduced to:  23 ShMem   1 Linda.
 Calling FoFJK, ICntrl=      2127 FMM=F ISym2X=0 I1Cent= 0 IOpClX= 0 NMat=1 NMatS=1 NMatT=0.
 CoulSu:  requested number of processors reduced to:  16 ShMem   1 Linda.
 ***** Axes restored to original set *****
 -------------------------------------------------------------------
 Center     Atomic                   Forces (Hartrees/Bohr)
 Number     Number              X              Y              Z
 -------------------------------------------------------------------
      1        6          -0.003476284    0.000735974    0.000922159
      2        8          -0.001435893    0.000013790   -0.000000188
      3        1           0.000000020   -0.000894027   -0.000000012
      4        1           0.000000003    0.000000051    0.000000009
      5        1           0.000000016    0.000000001   -0.000000001
      6        1           0.000000008   -0.000000019    0.000000012
      7        1          -0.000000039   -0.000000024   -0.000000038
      8        1           0.000000010    0.000000017    0.000000015
      9        1           0.000000002    0.000000037   -0.000000001
     10        6           0.000000030   -0.000000043    0.000000028
     11        6           0.000000004    0.000000129   -0.000000047
     12        8          -0.000000062   -0.000000173   -0.000000183
 -------------------------------------------------------------------
 Cartesian Forces:  Max     0.003476284 RMS     0.000673668
 -----------------------------------------------------------------------------------------------
                       Internal Coordinate Forces (Hartree/Bohr or radian)
  Cent   Atom   N1       Length/X         N2         Alpha/Y        N3         Beta/Z          J
 -----------------------------------------------------------------------------------------------
      1  C 
      2  O        1   0.000000(     1)
      3  H        1   0.000000(     2)      2   0.000000(    12)
      4  H        2   0.000000(     3)      1   0.000000(    13)      3   0.000000(    22)     0
      5  H        1   0.000000(     4)      2   0.000000(    14)      4   0.000000(    23)     0
      6  H        1   0.000000(     5)      2   0.000000(    15)      4   0.000000(    24)     0
      7  H        1   0.000000(     6)      2   0.000000(    16)      4   0.000000(    25)     0
      8  H        1   0.000000(     7)      2   0.000000(    17)      4   0.000000(    26)     0
      9  H        1   0.000000(     8)      2   0.000000(    18)      4   0.000000(    27)     0
     10  C        1   0.000000(     9)      2   0.000000(    19)      4   0.000000(    28)     0
     11  C        1   0.000000(    10)      2   0.000000(    20)     10   0.000000(    29)     0
     12  O       11   0.000000(    11)      1   0.000001(    21)      2   0.000000(    30)     0
 -----------------------------------------------------------------------------------------------
 Internal  Forces:  Max     0.000000660 RMS     0.000000152

 GradGradGradGradGradGradGradGradGradGradGradGradGradGradGradGradGradGrad
 Berny optimization.
 Search for a saddle point.
 Step number   2 out of a maximum of  100
 All quantities printed in internal units (Hartrees-Bohrs-Radians)
 Swaping is turned off.
 Update second derivatives using D2CorN and points    2
 ITU=  0  0
     Eigenvalues ---   -0.05699   0.00036   0.00903   0.01378   0.01566
     Eigenvalues ---    0.02197   0.03070   0.06674   0.07913   0.09010
     Eigenvalues ---    0.11460   0.16207   0.24730   0.27339   0.29073
     Eigenvalues ---    0.36552   0.37934   0.38798   0.41516   0.51383
     Eigenvalues ---    0.58856   0.89764   1.24437   2.63277   2.91135
     Eigenvalues ---    3.63179   5.39843   6.96389  17.62326  19.93993
 Eigenvectors required to have negative eigenvalues:
                          B1        A10       A3        A1        A2
   1                    0.66780  -0.50669  -0.34395  -0.28316   0.19647
                          A9        B11       D1        B7        B10
   1                   -0.17473   0.08507   0.07673   0.05792  -0.05766
 RFO step:  Lambda0=3.144096095D-12 Lambda= 0.00000000D+00.
 Linear search not attempted -- option 19 set.
 Variable       Old X    -DE/DX   Delta X   Delta X   Delta X     New X
                                 (Linear)    (Quad)   (Total)
    B1        4.24144   0.00000   0.00000   0.00000   0.00000   4.24144
    B2        2.03935   0.00000   0.00000   0.00000   0.00000   2.03935
    B3        1.83098   0.00000   0.00000   0.00000   0.00000   1.83098
    B4        2.03296   0.00000   0.00000   0.00000   0.00000   2.03296
    B5        4.08539   0.00000   0.00000   0.00000   0.00000   4.08539
    B6        6.53952   0.00000   0.00000   0.00000   0.00000   6.53952
    B7        5.66722   0.00000   0.00000  -0.00001  -0.00001   5.66721
    B8        5.19232   0.00000   0.00000   0.00000   0.00000   5.19232
    B9        4.85587   0.00000   0.00000   0.00000   0.00000   4.85587
   B10        2.73660   0.00000   0.00000   0.00000   0.00000   2.73659
   B11        2.66800   0.00000   0.00000   0.00000   0.00000   2.66800
    A1        1.59073   0.00000   0.00000   0.00000   0.00000   1.59073
    A2        1.92853   0.00000   0.00000   0.00000   0.00000   1.92853
    A3        1.36333   0.00000   0.00000   0.00000   0.00000   1.36333
    A4        1.61496   0.00000   0.00000  -0.00001  -0.00001   1.61496
    A5        1.85344   0.00000   0.00000  -0.00001  -0.00001   1.85343
    A6        1.32613   0.00000   0.00000  -0.00001  -0.00001   1.32612
    A7        1.79809   0.00000   0.00000   0.00000   0.00000   1.79809
    A8        1.69159   0.00000   0.00000  -0.00001  -0.00001   1.69159
    A9        1.86003   0.00000   0.00000  -0.00001  -0.00001   1.86002
   A10        1.30477   0.00000   0.00000   0.00000   0.00000   1.30477
    D1       -0.21685   0.00000   0.00000   0.00005   0.00005  -0.21680
    D2       -2.30070   0.00000   0.00000   0.00005   0.00005  -2.30066
    D3        2.33530   0.00000   0.00000   0.00005   0.00005   2.33535
    D4        1.54077   0.00000   0.00000   0.00005   0.00005   1.54082
    D5        1.40502   0.00000   0.00000   0.00004   0.00004   1.40506
    D6        0.99189   0.00000   0.00000   0.00005   0.00005   0.99193
    D7        1.39381   0.00000   0.00000   0.00005   0.00005   1.39385
    D8        0.52145   0.00000   0.00000   0.00000   0.00000   0.52145
    D9        3.00518   0.00000   0.00000   0.00000   0.00000   3.00518
         Item               Value     Threshold  Converged?
 Maximum Force            0.000001     0.000015     YES
 RMS     Force            0.000000     0.000010     YES
 Maximum Displacement     0.000047     0.000060     YES
 RMS     Displacement     0.000022     0.000040     YES
 Predicted change in Energy=-2.034485D-12
 Optimization completed.
    -- Stationary point found.
                       ----------------------------
                       !   Optimized Parameters   !
                       ! (Angstroms and Degrees)  !
 ----------------------                            ----------------------
 !      Name          Value   Derivative information (Atomic Units)     !
 ------------------------------------------------------------------------
 !       B1          2.2445   -DE/DX =    0.0                           !
 !       B2          1.0792   -DE/DX =    0.0                           !
 !       B3          0.9689   -DE/DX =    0.0                           !
 !       B4          1.0758   -DE/DX =    0.0                           !
 !       B5          2.1619   -DE/DX =    0.0                           !
 !       B6          3.4606   -DE/DX =    0.0                           !
 !       B7          2.999    -DE/DX =    0.0                           !
 !       B8          2.7477   -DE/DX =    0.0                           !
 !       B9          2.5696   -DE/DX =    0.0                           !
 !       B10         1.4481   -DE/DX =    0.0                           !
 !       B11         1.4118   -DE/DX =    0.0                           !
 !       A1         91.1423   -DE/DX =    0.0                           !
 !       A2        110.4966   -DE/DX =    0.0                           !
 !       A3         78.1129   -DE/DX =    0.0                           !
 !       A4         92.5307   -DE/DX =    0.0                           !
 !       A5        106.1942   -DE/DX =    0.0                           !
 !       A6         75.9816   -DE/DX =    0.0                           !
 !       A7        103.0232   -DE/DX =    0.0                           !
 !       A8         96.9212   -DE/DX =    0.0                           !
 !       A9        106.5716   -DE/DX =    0.0                           !
 !       A10        74.7579   -DE/DX =    0.0                           !
 !       D1        -12.4245   -DE/DX =    0.0                           !
 !       D2       -131.8206   -DE/DX =    0.0                           !
 !       D3        133.8029   -DE/DX =    0.0                           !
 !       D4         88.2796   -DE/DX =    0.0                           !
 !       D5         80.5017   -DE/DX =    0.0                           !
 !       D6         56.8309   -DE/DX =    0.0                           !
 !       D7         79.8592   -DE/DX =    0.0                           !
 !       D8         29.8767   -DE/DX =    0.0                           !
 !       D9        172.1839   -DE/DX =    0.0                           !
 ------------------------------------------------------------------------
 GradGradGradGradGradGradGradGradGradGradGradGradGradGradGradGradGradGrad

 ---------------------------------------------------------------------------------------------------
                            Z-MATRIX (ANGSTROMS AND DEGREES)
   CD    Cent   Atom    N1       Length/X        N2       Alpha/Y        N3        Beta/Z          J
 ---------------------------------------------------------------------------------------------------
      1      1  C 
      2      2  O        1   2.244472(     1)
      3      3  H        1   1.079176(     2)      2   91.142(    12)
      4      4  H        2   0.968915(     3)      1  110.497(    13)      3  -12.424(    22)      0
      5      5  H        1   1.075795(     4)      2   78.113(    14)      4 -131.821(    23)      0
      6      6  H        1   2.161893(     5)      2   92.531(    15)      4  133.803(    24)      0
      7      7  H        1   3.460566(     6)      2  106.194(    16)      4   88.280(    25)      0
      8      8  H        1   2.998961(     7)      2   75.982(    17)      4   80.502(    26)      0
      9      9  H        1   2.747658(     8)      2  103.023(    18)      4   56.831(    27)      0
     10     10  C        1   2.569617(     9)      2   96.921(    19)      4   79.859(    28)      0
     11     11  C        1   1.448144(    10)      2  106.572(    20)     10   29.877(    29)      0
     12     12  O       11   1.411844(    11)      1   74.758(    21)      2  172.184(    30)      0
 ---------------------------------------------------------------------------------------------------
                         Z-Matrix orientation:                         
 ---------------------------------------------------------------------
 Center     Atomic      Atomic             Coordinates (Angstroms)
 Number     Number       Type             X           Y           Z
 ---------------------------------------------------------------------
      1          6           0        0.000000    0.000000    0.000000
      2          8           0        0.000000    0.000000    2.244472
      3          1           0        1.078962    0.000000   -0.021513
      4          1           0        0.886321   -0.195267    2.583738
      5          1           0       -0.516724    0.917184    0.221596
      6          1           0       -1.795321   -1.200622   -0.095456
      7          1           0       -0.617252   -3.265431   -0.965131
      8          1           0       -0.148535   -2.905853    0.726447
      9          1           0        0.948198   -2.503432   -0.619171
     10          6           0       -0.101645   -2.548866   -0.309650
     11          6           0       -0.738816   -1.175023   -0.413030
     12          8           0       -0.501395   -0.449405   -1.600638
 ---------------------------------------------------------------------
                    Distance matrix (angstroms):
                    1          2          3          4          5
     1  C    0.000000
     2  O    2.244472   0.000000
     3  H    1.079176   2.509750   0.000000
     4  H    2.738503   0.968915   2.619652   0.000000
     5  H    1.075795   2.280407   1.856486   2.964085   0.000000
     6  H    2.161893   3.184326   3.115840   3.921738   2.494079
     7  H    3.460566   4.620129   3.798762   4.927587   4.348872
     8  H    2.998961   3.281835   3.241940   3.444957   3.873764
     9  H    2.747658   3.920038   2.577105   3.948428   3.814905
    10  C    2.569617   3.609790   2.823751   3.858393   3.531007
    11  C    1.448144   2.998140   2.199609   3.547057   2.197590
    12  O    1.736492   3.903618   2.278844   4.415807   2.277792
                    6          7          8          9         10
     6  H    0.000000
     7  H    2.531328   0.000000
     8  H    2.509032   1.791767   0.000000
     9  H    3.081962   1.775095   1.781980   0.000000
    10  C    2.175358   1.099533   1.096875   1.095462   0.000000
    11  C    1.103500   2.165502   2.154672   2.157123   1.517932
    12  O    2.122297   2.889169   3.402054   2.698820   2.496836
                   11         12
    11  C    0.000000
    12  O    1.411844   0.000000
 Stoichiometry    C3H7O2(1-)
 Framework group  C1[X(C3H7O2)]
 Deg. of freedom    30
 Full point group                 C1      NOp   1
 Largest Abelian subgroup         C1      NOp   1
 Largest concise Abelian subgroup C1      NOp   1
                         Standard orientation:                         
 ---------------------------------------------------------------------
 Center     Atomic      Atomic             Coordinates (Angstroms)
 Number     Number       Type             X           Y           Z
 ---------------------------------------------------------------------
      1          6           0        0.367038   -0.765682    0.257480
      2          8           0        2.336402    0.228326   -0.156290
      3          1           0        0.511381   -0.657341    1.321458
      4          1           0        2.679270    0.649170    0.646286
      5          1           0        0.900835   -1.540200   -0.264552
      6          1           0       -0.534864    0.064358   -1.523360
      7          1           0       -2.059694    1.645386   -0.265241
      8          1           0       -0.340858    2.125748   -0.106224
      9          1           0       -1.172441    1.291509    1.230925
     10          6           0       -1.080355    1.354330    0.141150
     11          6           0       -0.642037    0.016349   -0.426126
     12          8           0       -1.317839   -1.129402    0.047001
 ---------------------------------------------------------------------
 Rotational constants (GHZ):      7.0413258      3.1544104      2.3791372

 **********************************************************************

            Population analysis using the SCF density.

 **********************************************************************

 Orbital symmetries:
       Occupied  (A) (A) (A) (A) (A) (A) (A) (A) (A) (A) (A) (A)
                 (A) (A) (A) (A) (A) (A) (A) (A) (A)
       Virtual   (A) (A) (A) (A) (A) (A) (A) (A) (A) (A) (A) (A)
                 (A) (A) (A) (A) (A) (A) (A) (A) (A) (A) (A) (A)
                 (A) (A) (A) (A) (A) (A) (A) (A) (A) (A) (A) (A)
                 (A) (A) (A) (A) (A) (A) (A) (A) (A) (A) (A) (A)
                 (A) (A) (A) (A) (A) (A) (A) (A) (A) (A) (A) (A)
                 (A) (A) (A) (A) (A) (A) (A) (A) (A) (A) (A) (A)
                 (A) (A) (A) (A) (A) (A) (A) (A) (A) (A) (A) (A)
                 (A) (A) (A) (A) (A) (A) (A) (A) (A) (A) (A) (A)
                 (A) (A) (A) (A) (A) (A) (A) (A) (A) (A) (A) (A)
                 (A) (A) (A) (A) (A) (A) (A) (A)
 The electronic state is 1-A.
 Alpha  occ. eigenvalues --  -18.95319 -18.86734 -10.07135 -10.06530 -10.03446
 Alpha  occ. eigenvalues --   -0.82572  -0.66717  -0.58342  -0.50653  -0.41357
 Alpha  occ. eigenvalues --   -0.32430  -0.28452  -0.26868  -0.23836  -0.20646
 Alpha  occ. eigenvalues --   -0.18075  -0.16427  -0.11646  -0.07918  -0.02130
 Alpha  occ. eigenvalues --   -0.01748
 Alpha virt. eigenvalues --    0.09763   0.12001   0.13606   0.14409   0.15947
 Alpha virt. eigenvalues --    0.16522   0.18057   0.18806   0.20987   0.21668
 Alpha virt. eigenvalues --    0.23114   0.23746   0.24328   0.25346   0.25684
 Alpha virt. eigenvalues --    0.26788   0.28047   0.29047   0.30010   0.30745
 Alpha virt. eigenvalues --    0.33804   0.34681   0.37214   0.37921   0.38252
 Alpha virt. eigenvalues --    0.39777   0.41558   0.42614   0.44493   0.46551
 Alpha virt. eigenvalues --    0.47612   0.48178   0.49645   0.50351   0.52806
 Alpha virt. eigenvalues --    0.53196   0.56492   0.58402   0.78561   0.82257
 Alpha virt. eigenvalues --    0.84550   0.89264   0.91502   0.91714   0.95468
 Alpha virt. eigenvalues --    1.02059   1.05845   1.10997   1.12245   1.15950
 Alpha virt. eigenvalues --    1.19682   1.23909   1.25509   1.26073   1.29518
 Alpha virt. eigenvalues --    1.35520   1.41348   1.43368   1.47623   1.48312
 Alpha virt. eigenvalues --    1.49558   1.52766   1.57316   1.59987   1.63132
 Alpha virt. eigenvalues --    1.71406   1.78437   1.83478   1.85481   1.87182
 Alpha virt. eigenvalues --    1.90445   1.95905   1.99643   2.01709   2.04578
 Alpha virt. eigenvalues --    2.12083   2.14490   2.15470   2.19066   2.23301
 Alpha virt. eigenvalues --    2.25326   2.26874   2.28134   2.32824   2.37233
 Alpha virt. eigenvalues --    2.42091   2.48195   2.53761   2.57677   2.69487
 Alpha virt. eigenvalues --    2.74559   2.78184   2.80319   2.81028   2.85436
 Alpha virt. eigenvalues --    2.85899   2.90725   2.92276   2.93725   2.97095
 Alpha virt. eigenvalues --    3.01618   3.03076   3.15548   3.22676   3.39198
 Alpha virt. eigenvalues --    3.50091   3.59762   3.62642   3.64019   3.70312
 Alpha virt. eigenvalues --    3.73463   4.40183   4.42503   4.56377   4.68518
 Alpha virt. eigenvalues --    4.82223
          Condensed to atoms (all electrons):
              1          2          3          4          5          6
     1  C    7.161437   0.260735   0.353690  -0.037565   0.311869   0.024171
     2  O    0.260735   8.917043  -0.015125   0.158960  -0.013195  -0.010318
     3  H    0.353690  -0.015125   0.520345   0.002367  -0.025352   0.011238
     4  H   -0.037565   0.158960   0.002367   0.586079  -0.006362   0.005738
     5  H    0.311869  -0.013195  -0.025352  -0.006362   0.518290  -0.026050
     6  H    0.024171  -0.010318   0.011238   0.005738  -0.026050   0.849785
     7  H   -0.033677  -0.006650   0.000360   0.002390  -0.000762  -0.010136
     8  H    0.197304   0.049185  -0.001889  -0.007617  -0.012543   0.021272
     9  H   -0.051781  -0.008900   0.008696   0.000828   0.002327   0.014516
    10  C    1.003036   0.174271  -0.019858  -0.039072  -0.013557  -0.197889
    11  C   -3.125671  -0.570455   0.035192   0.095319   0.121449   0.350684
    12  O    0.210481   0.050346  -0.035096  -0.008559  -0.033255  -0.069719
              7          8          9         10         11         12
     1  C   -0.033677   0.197304  -0.051781   1.003036  -3.125671   0.210481
     2  O   -0.006650   0.049185  -0.008900   0.174271  -0.570455   0.050346
     3  H    0.000360  -0.001889   0.008696  -0.019858   0.035192  -0.035096
     4  H    0.002390  -0.007617   0.000828  -0.039072   0.095319  -0.008559
     5  H   -0.000762  -0.012543   0.002327  -0.013557   0.121449  -0.033255
     6  H   -0.010136   0.021272   0.014516  -0.197889   0.350684  -0.069719
     7  H    0.653354  -0.059602  -0.032809   0.301558   0.096662  -0.020070
     8  H   -0.059602   0.616348  -0.019540   0.482138  -0.397994   0.024469
     9  H   -0.032809  -0.019540   0.525904   0.383982   0.006062   0.013397
    10  C    0.301558   0.482138   0.383982   7.145665  -2.697586   0.070366
    11  C    0.096662  -0.397994   0.006062  -2.697586  12.073598  -0.366544
    12  O   -0.020070   0.024469   0.013397   0.070366  -0.366544   8.692435
 Mulliken atomic charges:
              1
     1  C   -0.274027
     2  O   -0.985899
     3  H    0.165433
     4  H    0.247494
     5  H    0.177141
     6  H    0.036708
     7  H    0.109383
     8  H    0.108469
     9  H    0.157319
    10  C   -0.593055
    11  C    0.379285
    12  O   -0.528251
 Sum of Mulliken atomic charges =  -1.00000
 Mulliken charges with hydrogens summed into heavy atoms:
              1
     1  C    0.068547
     2  O   -0.738404
    10  C   -0.217884
    11  C    0.415992
    12  O   -0.528251
 Sum of Mulliken charges with hydrogens summed into heavy atoms =  -1.00000
 Electronic spatial extent (au):  <R**2>=            556.5394
 Charge=             -1.0000 electrons
 Dipole moment (field-independent basis, Debye):
    X=             -4.1657    Y=              1.5313    Z=              2.1248  Tot=              4.9206
 Quadrupole moment (field-independent basis, Debye-Ang):
   XX=            -62.1130   YY=            -40.3248   ZZ=            -34.3894
   XY=             -5.6809   XZ=              5.6858   YZ=              1.4899
 Traceless Quadrupole moment (field-independent basis, Debye-Ang):
   XX=            -16.5039   YY=              5.2842   ZZ=             11.2197
   XY=             -5.6809   XZ=              5.6858   YZ=              1.4899
 Octapole moment (field-independent basis, Debye-Ang**2):
  XXX=            -47.2271  YYY=             -2.6640  ZZZ=              4.5744  XYY=              6.5820
  XXY=              4.3044  XXZ=             13.4587  XZZ=             -0.5668  YZZ=             -1.6788
  YYZ=              1.1371  XYZ=              3.1796
 Hexadecapole moment (field-independent basis, Debye-Ang**3):
 XXXX=           -637.0414 YYYY=           -251.8724 ZZZZ=            -80.9678 XXXY=             -3.0706
 XXXZ=             42.2530 YYYX=             -2.2793 YYYZ=              1.5450 ZZZX=              5.0559
 ZZZY=              2.5009 XXYY=           -134.9093 XXZZ=            -95.8742 YYZZ=            -54.6448
 XXYZ=              8.6242 YYXZ=              2.0278 ZZXY=              0.0145
 N-N= 1.745649105286D+02 E-N=-9.866269647606D+02  KE= 2.664167028590D+02
 1\1\GINC-C26N13\FTS\RB3LYP\6-31++G(d,p)\C3H7O2(1-)\ROOT\27-Apr-2018\1\
 \# opt=(calcfc,tight,ts,noeigen,z-matrix,maxcycle=300) freq b3lyp/6-31
 ++g(d,p) field=z-50\\Title Card Required\\-1,1\C\O,1,B1\H,1,B2,2,A1\H,
 2,B3,1,A2,3,D1,0\H,1,B4,2,A3,4,D2,0\H,1,B5,2,A4,4,D3,0\H,1,B6,2,A5,4,D
 4,0\H,1,B7,2,A6,4,D5,0\H,1,B8,2,A7,4,D6,0\C,1,B9,2,A8,4,D7,0\C,1,B10,2
 ,A9,10,D8,0\O,11,B11,1,A10,2,D9,0\\B1=2.24447165\B2=1.07917617\B3=0.96
 891506\B4=1.07579464\B5=2.16189321\B6=3.46056589\B7=2.99896109\B8=2.74
 765823\B9=2.56961682\B10=1.44814386\B11=1.41184364\A1=91.14225658\A2=1
 10.49656029\A3=78.11291953\A4=92.53066292\A5=106.19420968\A6=75.981626
 6\A7=103.02316103\A8=96.92120593\A9=106.57161293\A10=74.7578912\D1=-12
 .42446831\D2=-131.82055296\D3=133.80289347\D4=88.2796338\D5=80.5017024
 \D6=56.83089251\D7=79.85918913\D8=29.87667553\D9=172.18389953\\Version
 =EM64L-G09RevB.01\State=1-A\HF=-268.9462948\RMSD=6.063e-09\RMSF=6.737e
 -04\Dipole=0.6391516,-1.2580821,-1.3253429\Quadrupole=9.1718969,4.0516
 309,-13.2235278,0.3121782,0.3485823,-4.0993019\PG=C01 [X(C3H7O2)]\\@


 Until you make peace with who you are,
 you'll never be content with what you have.
                           -- Doris Mortman
 Job cpu time:  0 days  0 hours  9 minutes 19.4 seconds.
 File lengths (MBytes):  RWF=   1280 Int=      0 D2E=      0 Chk=     32 Scr=     32
 Normal termination of Gaussian 09 at Fri Apr 27 10:55:36 2018.
 Link1:  Proceeding to internal job step number  2.
 ----------------------------------------------------------------------
 #N Geom=AllCheck Guess=TCheck SCRF=Check GenChk RB3LYP/6-31++G(d,p) Fr
 eq
 ----------------------------------------------------------------------
 1/5=1,6=300,7=10,10=4,11=1,29=7,30=1,38=1,40=1/1,3;
 2/12=2,40=1/2;
 3/5=1,6=6,7=1111,11=2,14=-4,16=1,25=1,30=1,70=2,71=2,74=-5,116=1/1,2,3;
 4/5=101/1;
 5/5=2,98=1/2;
 8/6=4,10=90,11=11/1;
 11/6=1,8=1,9=11,15=111,16=1/1,2,10;
 10/6=1/2;
 6/7=2,8=2,9=2,10=2,18=1,28=1/1;
 7/8=1,10=1,25=1/1,2,3,16;
 1/5=1,6=300,7=10,10=4,11=1,30=1/3;
 99//99;
 -------------------
 Title Card Required
 -------------------
 Z-Matrix taken from the checkpoint file:
 OH-term-field-3.chk
 Charge = -1 Multiplicity = 1
 C
 O,1,B1
 H,1,B2,2,A1
 H,2,B3,1,A2,3,D1,0
 H,1,B4,2,A3,4,D2,0
 H,1,B5,2,A4,4,D3,0
 H,1,B6,2,A5,4,D4,0
 H,1,B7,2,A6,4,D5,0
 H,1,B8,2,A7,4,D6,0
 C,1,B9,2,A8,4,D7,0
 C,1,B10,2,A9,10,D8,0
 O,11,B11,1,A10,2,D9,0
      Variables:
 B1=2.24447165
 B2=1.07917617
 B3=0.96891506
 B4=1.07579464
 B5=2.16189321
 B6=3.46056589
 B7=2.99896109
 B8=2.74765823
 B9=2.56961682
 B10=1.44814386
 B11=1.41184364
 A1=91.14225658
 A2=110.49656029
 A3=78.11291953
 A4=92.53066292
 A5=106.19420968
 A6=75.9816266
 A7=103.02316103
 A8=96.92120593
 A9=106.57161293
 A10=74.7578912
 D1=-12.42446831
 D2=-131.82055296
 D3=133.80289347
 D4=88.2796338
 D5=80.5017024
 D6=56.83089251
 D7=79.85918913
 D8=29.87667553
 D9=172.18389953
 Recover connectivity data from disk.

 GradGradGradGradGradGradGradGradGradGradGradGradGradGradGradGradGradGrad
 Berny optimization.
 Initialization pass.
                       ----------------------------
                       !    Initial Parameters    !
                       ! (Angstroms and Degrees)  !
 ----------------------                            ----------------------
 !      Name          Value   Derivative information (Atomic Units)     !
 ------------------------------------------------------------------------
 !       B1          2.2445   calculate D2E/DX2 analytically            !
 !       B2          1.0792   calculate D2E/DX2 analytically            !
 !       B3          0.9689   calculate D2E/DX2 analytically            !
 !       B4          1.0758   calculate D2E/DX2 analytically            !
 !       B5          2.1619   calculate D2E/DX2 analytically            !
 !       B6          3.4606   calculate D2E/DX2 analytically            !
 !       B7          2.999    calculate D2E/DX2 analytically            !
 !       B8          2.7477   calculate D2E/DX2 analytically            !
 !       B9          2.5696   calculate D2E/DX2 analytically            !
 !       B10         1.4481   calculate D2E/DX2 analytically            !
 !       B11         1.4118   calculate D2E/DX2 analytically            !
 !       A1         91.1423   calculate D2E/DX2 analytically            !
 !       A2        110.4966   calculate D2E/DX2 analytically            !
 !       A3         78.1129   calculate D2E/DX2 analytically            !
 !       A4         92.5307   calculate D2E/DX2 analytically            !
 !       A5        106.1942   calculate D2E/DX2 analytically            !
 !       A6         75.9816   calculate D2E/DX2 analytically            !
 !       A7        103.0232   calculate D2E/DX2 analytically            !
 !       A8         96.9212   calculate D2E/DX2 analytically            !
 !       A9        106.5716   calculate D2E/DX2 analytically            !
 !       A10        74.7579   calculate D2E/DX2 analytically            !
 !       D1        -12.4245   calculate D2E/DX2 analytically            !
 !       D2       -131.8206   calculate D2E/DX2 analytically            !
 !       D3        133.8029   calculate D2E/DX2 analytically            !
 !       D4         88.2796   calculate D2E/DX2 analytically            !
 !       D5         80.5017   calculate D2E/DX2 analytically            !
 !       D6         56.8309   calculate D2E/DX2 analytically            !
 !       D7         79.8592   calculate D2E/DX2 analytically            !
 !       D8         29.8767   calculate D2E/DX2 analytically            !
 !       D9        172.1839   calculate D2E/DX2 analytically            !
 ------------------------------------------------------------------------
 Trust Radius=3.00D-01 FncErr=1.00D-07 GrdErr=1.00D-07
 Number of steps in this run=      2 maximum allowed number of steps=      2.
 Search for a saddle point of order  1.
 GradGradGradGradGradGradGradGradGradGradGradGradGradGradGradGradGradGrad

                          Input orientation:                          
 ---------------------------------------------------------------------
 Center     Atomic      Atomic             Coordinates (Angstroms)
 Number     Number       Type             X           Y           Z
 ---------------------------------------------------------------------
      1          6           0        0.000000    0.000000    0.000000
      2          8           0        0.000000    0.000000    2.244472
      3          1           0        1.078962    0.000000   -0.021513
      4          1           0        0.886321   -0.195267    2.583738
      5          1           0       -0.516724    0.917184    0.221596
      6          1           0       -1.795321   -1.200622   -0.095456
      7          1           0       -0.617252   -3.265431   -0.965131
      8          1           0       -0.148535   -2.905853    0.726447
      9          1           0        0.948198   -2.503432   -0.619171
     10          6           0       -0.101645   -2.548866   -0.309650
     11          6           0       -0.738816   -1.175023   -0.413030
     12          8           0       -0.501395   -0.449405   -1.600638
 ---------------------------------------------------------------------
                    Distance matrix (angstroms):
                    1          2          3          4          5
     1  C    0.000000
     2  O    2.244472   0.000000
     3  H    1.079176   2.509750   0.000000
     4  H    2.738503   0.968915   2.619652   0.000000
     5  H    1.075795   2.280407   1.856486   2.964085   0.000000
     6  H    2.161893   3.184326   3.115840   3.921738   2.494079
     7  H    3.460566   4.620129   3.798762   4.927587   4.348872
     8  H    2.998961   3.281835   3.241940   3.444957   3.873764
     9  H    2.747658   3.920038   2.577105   3.948428   3.814905
    10  C    2.569617   3.609790   2.823751   3.858393   3.531007
    11  C    1.448144   2.998140   2.199609   3.547057   2.197590
    12  O    1.736492   3.903618   2.278844   4.415807   2.277792
                    6          7          8          9         10
     6  H    0.000000
     7  H    2.531328   0.000000
     8  H    2.509032   1.791767   0.000000
     9  H    3.081962   1.775095   1.781980   0.000000
    10  C    2.175358   1.099533   1.096875   1.095462   0.000000
    11  C    1.103500   2.165502   2.154672   2.157123   1.517932
    12  O    2.122297   2.889169   3.402054   2.698820   2.496836
                   11         12
    11  C    0.000000
    12  O    1.411844   0.000000
 Stoichiometry    C3H7O2(1-)
 Framework group  C1[X(C3H7O2)]
 Deg. of freedom    30
 Full point group                 C1      NOp   1
 Largest Abelian subgroup         C1      NOp   1
 Largest concise Abelian subgroup C1      NOp   1
                         Standard orientation:                         
 ---------------------------------------------------------------------
 Center     Atomic      Atomic             Coordinates (Angstroms)
 Number     Number       Type             X           Y           Z
 ---------------------------------------------------------------------
      1          6           0        0.367038   -0.765682    0.257480
      2          8           0        2.336402    0.228326   -0.156290
      3          1           0        0.511381   -0.657341    1.321458
      4          1           0        2.679270    0.649170    0.646286
      5          1           0        0.900835   -1.540200   -0.264552
      6          1           0       -0.534864    0.064358   -1.523360
      7          1           0       -2.059694    1.645386   -0.265241
      8          1           0       -0.340858    2.125748   -0.106224
      9          1           0       -1.172441    1.291509    1.230925
     10          6           0       -1.080355    1.354330    0.141150
     11          6           0       -0.642037    0.016349   -0.426126
     12          8           0       -1.317839   -1.129402    0.047001
 ---------------------------------------------------------------------
 Rotational constants (GHZ):      7.0413258      3.1544104      2.3791372
 Standard basis: 6-31++G(d,p) (6D, 7F)
 The following finite field(s) will be applied:
 An electric field of              0.0000  0.0000 -0.0050
 There are   137 symmetry adapted basis functions of A   symmetry.
 Integral buffers will be    131072 words long.
 Raffenetti 2 integral format.
 Two-electron integral symmetry is turned on.
   137 basis functions,   216 primitive gaussians,   137 cartesian basis functions
    21 alpha electrons       21 beta electrons
       nuclear repulsion energy       174.5649105286 Hartrees.
 NAtoms=   12 NActive=   12 NUniq=   12 SFac= 1.00D+00 NAtFMM=   50 NAOKFM=F Big=F
 One-electron integrals computed using PRISM.
 PrsmSu:  requested number of processors reduced to:  10 ShMem   1 Linda.
 NBasis=   137 RedAO= T  NBF=   137
 NBsUse=   137 1.00D-06 NBFU=   137
 The nuclear repulsion energy is now       174.5649105286 hartrees.
 Initial guess read from the checkpoint file:  OH-term-field-3.chk
 B after Tr=     0.000000    0.000000    0.000000
         Rot=    1.000000    0.000000    0.000000    0.000000 Ang=   0.00 deg.
 Initial guess orbital symmetries:
       Occupied  (A) (A) (A) (A) (A) (A) (A) (A) (A) (A) (A) (A)
                 (A) (A) (A) (A) (A) (A) (A) (A) (A)
       Virtual   (A) (A) (A) (A) (A) (A) (A) (A) (A) (A) (A) (A)
                 (A) (A) (A) (A) (A) (A) (A) (A) (A) (A) (A) (A)
                 (A) (A) (A) (A) (A) (A) (A) (A) (A) (A) (A) (A)
                 (A) (A) (A) (A) (A) (A) (A) (A) (A) (A) (A) (A)
                 (A) (A) (A) (A) (A) (A) (A) (A) (A) (A) (A) (A)
                 (A) (A) (A) (A) (A) (A) (A) (A) (A) (A) (A) (A)
                 (A) (A) (A) (A) (A) (A) (A) (A) (A) (A) (A) (A)
                 (A) (A) (A) (A) (A) (A) (A) (A) (A) (A) (A) (A)
                 (A) (A) (A) (A) (A) (A) (A) (A) (A) (A) (A) (A)
                 (A) (A) (A) (A) (A) (A) (A) (A)
 Requested convergence on RMS density matrix=1.00D-08 within 128 cycles.
 Requested convergence on MAX density matrix=1.00D-06.
 Requested convergence on             energy=1.00D-06.
 No special actions if energy rises.
 SCF Done:  E(RB3LYP) =  -268.946294819     A.U. after    1 cycles
             Convg  =    0.3621D-08             -V/T =  2.0095
 Range of M.O.s used for correlation:     1   137
 NBasis=   137 NAE=    21 NBE=    21 NFC=     0 NFV=     0
 NROrb=    137 NOA=    21 NOB=    21 NVA=   116 NVB=   116

[...]
      2        8          -0.001435888    0.000013789   -0.000000187
      3        1           0.000000010   -0.000894027   -0.000000013
      4        1          -0.000000001    0.000000052    0.000000009
      5        1           0.000000019   -0.000000005   -0.000000006
      6        1           0.000000002   -0.000000019    0.000000012
      7        1          -0.000000040   -0.000000025   -0.000000038
      8        1           0.000000010    0.000000016    0.000000019
      9        1          -0.000000003    0.000000036    0.000000001
     10        6           0.000000036   -0.000000039    0.000000021
     11        6           0.000000015    0.000000134   -0.000000047
     12        8          -0.000000065   -0.000000176   -0.000000182
 -------------------------------------------------------------------
 Cartesian Forces:  Max     0.003476280 RMS     0.000673668
 -----------------------------------------------------------------------------------------------
                       Internal Coordinate Forces (Hartree/Bohr or radian)
  Cent   Atom   N1       Length/X         N2         Alpha/Y        N3         Beta/Z          J
 -----------------------------------------------------------------------------------------------
      1  C 
      2  O        1   0.000000(     1)
      3  H        1   0.000000(     2)      2   0.000000(    12)
      4  H        2   0.000000(     3)      1   0.000000(    13)      3   0.000000(    22)     0
      5  H        1   0.000000(     4)      2   0.000000(    14)      4   0.000000(    23)     0
      6  H        1   0.000000(     5)      2   0.000000(    15)      4   0.000000(    24)     0
      7  H        1   0.000000(     6)      2   0.000000(    16)      4   0.000000(    25)     0
      8  H        1   0.000000(     7)      2   0.000000(    17)      4   0.000000(    26)     0
      9  H        1   0.000000(     8)      2   0.000000(    18)      4   0.000000(    27)     0
     10  C        1   0.000000(     9)      2   0.000000(    19)      4   0.000000(    28)     0
     11  C        1   0.000000(    10)      2   0.000000(    20)     10   0.000000(    29)     0
     12  O       11   0.000000(    11)      1   0.000001(    21)      2   0.000000(    30)     0
 -----------------------------------------------------------------------------------------------
 Internal  Forces:  Max     0.000000668 RMS     0.000000153

 GradGradGradGradGradGradGradGradGradGradGradGradGradGradGradGradGradGrad
 Berny optimization.
 Search for a saddle point.
 Step number   1 out of a maximum of    2
 All quantities printed in internal units (Hartrees-Bohrs-Radians)
 Swaping is turned off.
 Second derivative matrix not updated -- analytic derivatives used.
 ITU=  0
     Eigenvalues ---   -0.05699   0.00036   0.00901   0.01378   0.01565
     Eigenvalues ---    0.02196   0.03070   0.06674   0.07913   0.09007
     Eigenvalues ---    0.11458   0.16209   0.24731   0.27337   0.29075
     Eigenvalues ---    0.36550   0.37934   0.38798   0.41513   0.51383
     Eigenvalues ---    0.58855   0.89759   1.24431   2.63272   2.91125
     Eigenvalues ---    3.63178   5.39834   6.96378  17.62337  19.94072
 Eigenvectors required to have negative eigenvalues:
                          B1        A10       A3        A1        A2
   1                    0.66770  -0.50676  -0.34399  -0.28323   0.19649
                          A9        B11       D1        B7        B10
   1                   -0.17470   0.08509   0.07672   0.05795  -0.05766
 Angle between quadratic step and forces=  87.73 degrees.
 Linear search not attempted -- option 19 set.
 Variable       Old X    -DE/DX   Delta X   Delta X   Delta X     New X
                                 (Linear)    (Quad)   (Total)
    B1        4.24144   0.00000   0.00000   0.00000   0.00000   4.24144
    B2        2.03935   0.00000   0.00000   0.00000   0.00000   2.03935
    B3        1.83098   0.00000   0.00000   0.00000   0.00000   1.83098
    B4        2.03296   0.00000   0.00000   0.00000   0.00000   2.03296
    B5        4.08539   0.00000   0.00000   0.00000   0.00000   4.08539
    B6        6.53952   0.00000   0.00000   0.00000   0.00000   6.53952
    B7        5.66722   0.00000   0.00000  -0.00001  -0.00001   5.66721
    B8        5.19232   0.00000   0.00000   0.00000   0.00000   5.19232
    B9        4.85587   0.00000   0.00000   0.00000   0.00000   4.85587
   B10        2.73660   0.00000   0.00000   0.00000   0.00000   2.73659
   B11        2.66800   0.00000   0.00000   0.00000   0.00000   2.66800
    A1        1.59073   0.00000   0.00000   0.00000   0.00000   1.59073
    A2        1.92853   0.00000   0.00000   0.00000   0.00000   1.92853
    A3        1.36333   0.00000   0.00000   0.00000   0.00000   1.36333
    A4        1.61496   0.00000   0.00000  -0.00001  -0.00001   1.61496
    A5        1.85344   0.00000   0.00000  -0.00001  -0.00001   1.85343
    A6        1.32613   0.00000   0.00000  -0.00001  -0.00001   1.32612
    A7        1.79809   0.00000   0.00000   0.00000   0.00000   1.79809
    A8        1.69159   0.00000   0.00000  -0.00001  -0.00001   1.69159
    A9        1.86003   0.00000   0.00000  -0.00001  -0.00001   1.86002
   A10        1.30477   0.00000   0.00000   0.00000   0.00000   1.30477
    D1       -0.21685   0.00000   0.00000   0.00005   0.00005  -0.21680
    D2       -2.30070   0.00000   0.00000   0.00005   0.00005  -2.30066
    D3        2.33530   0.00000   0.00000   0.00005   0.00005   2.33535
    D4        1.54077   0.00000   0.00000   0.00005   0.00005   1.54082
    D5        1.40502   0.00000   0.00000   0.00004   0.00004   1.40506
    D6        0.99189   0.00000   0.00000   0.00005   0.00005   0.99193
    D7        1.39381   0.00000   0.00000   0.00005   0.00005   1.39385
    D8        0.52145   0.00000   0.00000   0.00000   0.00000   0.52145
    D9        3.00518   0.00000   0.00000   0.00000   0.00000   3.00518
         Item               Value     Threshold  Converged?
 Maximum Force            0.000001     0.000015     YES
 RMS     Force            0.000000     0.000010     YES
 Maximum Displacement     0.000048     0.000060     YES
 RMS     Displacement     0.000023     0.000040     YES
 Predicted change in Energy=-2.070510D-12
 Optimization completed.
    -- Stationary point found.
                       ----------------------------
                       !   Optimized Parameters   !
                       ! (Angstroms and Degrees)  !
 ----------------------                            ----------------------
 !      Name          Value   Derivative information (Atomic Units)     !
 ------------------------------------------------------------------------
 !       B1          2.2445   -DE/DX =    0.0                           !
 !       B2          1.0792   -DE/DX =    0.0                           !
 !       B3          0.9689   -DE/DX =    0.0                           !
 !       B4          1.0758   -DE/DX =    0.0                           !
 !       B5          2.1619   -DE/DX =    0.0                           !
 !       B6          3.4606   -DE/DX =    0.0                           !
 !       B7          2.999    -DE/DX =    0.0                           !
 !       B8          2.7477   -DE/DX =    0.0                           !
 !       B9          2.5696   -DE/DX =    0.0                           !
 !       B10         1.4481   -DE/DX =    0.0                           !
 !       B11         1.4118   -DE/DX =    0.0                           !
 !       A1         91.1423   -DE/DX =    0.0                           !
 !       A2        110.4966   -DE/DX =    0.0                           !
 !       A3         78.1129   -DE/DX =    0.0                           !
 !       A4         92.5307   -DE/DX =    0.0                           !
 !       A5        106.1942   -DE/DX =    0.0                           !
 !       A6         75.9816   -DE/DX =    0.0                           !
 !       A7        103.0232   -DE/DX =    0.0                           !
 !       A8         96.9212   -DE/DX =    0.0                           !
 !       A9        106.5716   -DE/DX =    0.0                           !
 !       A10        74.7579   -DE/DX =    0.0                           !
 !       D1        -12.4245   -DE/DX =    0.0                           !
 !       D2       -131.8206   -DE/DX =    0.0                           !
 !       D3        133.8029   -DE/DX =    0.0                           !
 !       D4         88.2796   -DE/DX =    0.0                           !
 !       D5         80.5017   -DE/DX =    0.0                           !
 !       D6         56.8309   -DE/DX =    0.0                           !
 !       D7         79.8592   -DE/DX =    0.0                           !
 !       D8         29.8767   -DE/DX =    0.0                           !
 !       D9        172.1839   -DE/DX =    0.0                           !
 ------------------------------------------------------------------------
 GradGradGradGradGradGradGradGradGradGradGradGradGradGradGradGradGradGrad

 1\1\GINC-C26N13\Freq\RB3LYP\6-31++G(d,p)\C3H7O2(1-)\ROOT\27-Apr-2018\1
 \\#N Geom=AllCheck Guess=TCheck SCRF=Check GenChk RB3LYP/6-31++G(d,p) 
 Freq\\Title Card Required\\-1,1\C\O,1,B1\H,1,B2,2,A1\H,2,B3,1,A2,3,D1,
 0\H,1,B4,2,A3,4,D2,0\H,1,B5,2,A4,4,D3,0\H,1,B6,2,A5,4,D4,0\H,1,B7,2,A6
 ,4,D5,0\H,1,B8,2,A7,4,D6,0\C,1,B9,2,A8,4,D7,0\C,1,B10,2,A9,10,D8,0\O,1
 1,B11,1,A10,2,D9,0\\B1=2.24447165\B2=1.07917617\B3=0.96891506\B4=1.075
 79464\B5=2.16189321\B6=3.46056589\B7=2.99896109\B8=2.74765823\B9=2.569
 61682\B10=1.44814386\B11=1.41184364\A1=91.14225658\A2=110.49656029\A3=
 78.11291953\A4=92.53066292\A5=106.19420968\A6=75.9816266\A7=103.023161
 03\A8=96.92120593\A9=106.57161293\A10=74.7578912\D1=-12.42446831\D2=-1
 31.82055296\D3=133.80289347\D4=88.2796338\D5=80.5017024\D6=56.83089251
 \D7=79.85918913\D8=29.87667553\D9=172.18389953\\Version=EM64L-G09RevB.
 01\State=1-A\HF=-268.9462948\RMSD=3.621e-09\RMSF=6.737e-04\ZeroPoint=0
 .0943652\Thermal=0.1012208\Dipole=0.6391518,-1.258082,-1.3253429\Dipol
 eDeriv=0.209281,0.0584662,0.3505522,-0.0273972,0.109547,0.0727458,0.37
 79548,0.4825217,2.3345089,-0.5390341,-0.0944953,0.0708016,-0.0887626,-
 0.9687568,-0.0522029,-0.0699405,-0.2030246,-1.597701,-0.0496838,-0.018
 7882,-0.0118612,0.0186758,0.0577678,-0.0083938,0.0029194,-0.0435912,-0
 .0652371,-0.134397,0.0833296,-0.11803,0.0909604,0.237323,0.0326316,-0.
 0771801,-0.0053849,0.0869978,0.0130135,0.0463292,-0.0150774,0.0362071,
 -0.0390223,-0.002593,-0.0279963,-0.04242,-0.0229175,-0.3327181,-0.0404
 46,0.1056146,-0.010228,-0.0727604,0.0123732,0.1099673,0.0500609,-0.003
 8465,-0.0263688,-0.1149021,-0.1075004,-0.0667657,-0.134811,-0.094592,-
 0.0840081,-0.1740497,-0.0678016,0.0512853,0.0027288,0.0244093,0.005258
 1,-0.0000319,0.0321844,0.008073,0.1439043,-0.1120069,-0.1440143,0.0407
 639,0.048106,-0.0446749,0.0348859,0.016362,0.0566172,-0.0189976,0.0385
 861,0.0647441,0.1210112,0.0162047,0.1228488,-0.0866295,0.1110759,0.015
 634,0.0811744,0.187888,0.4495468,-0.0221008,0.0853257,0.0213946,0.6203
 568,0.1368192,-0.1602158,-0.3396289,0.2316379,-0.5616547,-0.0618967,-0
 .4485452,-0.0575163,-0.7578686,-0.2564104,-0.1518249,0.0694355,-2.0101
 08\Polar=54.7648182,3.6618072,68.4498824,5.3048253,6.9189393,89.396384
 9\PG=C01 [X(C3H7O2)]\NImag=1\\0.69358515,-0.02715393,0.64419730,-0.023
 91703,0.13535795,-0.01317399,-0.01583714,0.00136356,0.00263659,0.44157
 666,0.00102803,-0.01108163,-0.00128254,-0.09659911,0.02626452,0.007695
 40,-0.00273303,0.02654460,0.16155692,-0.03565999,0.08879439,-0.3666177
 1,0.00591727,0.00781034,0.00255816,-0.00011971,-0.00146336,0.37713998,
 0.00685359,-0.05231981,-0.00971024,-0.00067814,-0.00084707,0.00050540,
 -0.00228374,0.04765298,0.01672800,0.00075168,-0.01558755,0.00322890,-0
 .00020033,-0.00780128,-0.00601873,0.00753689,0.03465499,-0.00015744,-0
 .00065610,-0.00218782,-0.43206616,0.09519913,-0.16230948,0.00043258,-0
 .00000241,0.00007061,0.43086049,-0.00022983,-0.00248116,0.00166203,0.0
 9515962,-0.02123916,0.03527413,-0.00013678,0.00064711,0.00020707,-0.09
 468539,0.02193110,-0.00658544,0.00172771,0.00913730,-0.15726376,0.0346
 8006,-0.06909268,0.00109489,0.00032759,-0.00108050,0.16201356,-0.03587
 106,0.07028210,-0.13364850,0.13974448,0.03350441,0.00000522,-0.0010637
 4,-0.00122748,-0.00749919,0.02226474,0.00457343,0.00021295,0.00006317,
 0.00026804,0.13069544,0.13448839,-0.28208196,-0.06384768,-0.00007853,0
 .00024587,0.00172456,-0.00346793,0.00376949,0.00061973,-0.00066287,0.0
 0064481,-0.00030901,-0.13864762,0.28914020,0.03732770,-0.05221801,-0.0
 2109732,-0.00399717,0.00337609,-0.01119809,-0.00024247,-0.00008926,0.0
 0295962,0.00089176,0.00031302,-0.00236965,-0.03084009,0.06432214,0.047
 49941,-0.01465502,0.00213924,0.00824516,0.00115041,0.00015783,-0.00167
 790,0.00015469,-0.00169633,0.00093152,0.00037015,0.00021981,-0.0000542
 5,0.00101185,-0.00002182,-0.00011501,0.28806491,-0.02152658,-0.0004215
 2,0.00692095,0.00041008,0.00012876,-0.00118795,-0.00089930,-0.00230277
 ,0.00137010,0.00011970,-0.00000490,0.00000836,0.00014730,0.00092802,-0
 .00063982,0.00077059,0.05954385,-0.01805206,0.00171416,0.00014251,0.00
 027880,-0.00006099,0.00082287,-0.00169062,-0.00263059,0.00078066,0.000
 08831,0.00008316,0.00042700,0.00109673,0.00054614,0.00001020,-0.069192
 62,-0.00583881,0.06647785,-0.00093286,0.00174919,-0.00030110,0.0001728
 0,-0.00029924,-0.00020514,0.00030991,0.00047078,-0.00010939,0.00004270
 ,0.00011351,0.00014916,0.00047932,0.00044650,0.00004310,0.00095616,-0.
 00091515,0.00020013,0.11031464,0.00543215,-0.00372874,-0.00120184,-0.0
 0004438,0.00019192,-0.00061568,0.00005450,0.00041051,-0.00005079,-0.00
 004908,-0.00006027,-0.00004912,-0.00084171,-0.00130094,0.00077722,0.00
 073839,0.00135252,0.00034671,0.08440466,0.16337151,0.00063922,0.001447
 52,0.00038762,0.00005479,-0.00093267,-0.00037372,-0.00003032,0.0000248
 1,-0.00013404,0.00009335,0.00021127,0.00005979,-0.00005799,0.00011491,
 0.00017420,0.00067148,-0.00032462,-0.00017869,0.07987907,0.10833768,0.
 14509764,0.00029706,-0.00014901,0.00016683,-0.00044253,0.00024009,0.00
 007804,0.00007262,0.00006718,0.00021516,-0.00014058,-0.00025125,-0.000
 13647,-0.00003502,0.00000484,0.00007898,-0.00017119,-0.00070199,0.0003
 8653,-0.00018787,0.00632864,-0.01481536,0.04752510,-0.00033153,0.00140
 751,0.00391757,-0.00003408,0.00164649,-0.00074135,-0.00009028,-0.00016
 233,-0.00019918,-0.00010769,-0.00035307,-0.00038100,0.00007037,0.00015
 764,-0.00012869,0.00049898,0.00092917,-0.00094361,0.00210559,0.0075279
 9,-0.02024905,0.00342984,0.07632548,-0.00041423,0.00033966,-0.00166650
 ,0.00004685,-0.00045737,0.00068796,-0.00004269,0.00008621,0.00006951,0
 .00000932,0.00006119,0.00012220,0.00014125,0.00002002,0.00004398,-0.00
 056831,0.00031844,0.00034851,0.00126024,0.00571015,-0.01580647,-0.0121
 7566,-0.08876110,0.30349571,0.00073215,-0.00116148,0.00009558,0.000256
 13,0.00003610,0.00003030,0.00054126,0.00064204,-0.00011582,0.00010162,
 0.00007496,0.00011277,0.00019824,-0.00000650,0.00009789,-0.00005683,0.
 00330879,-0.00047986,-0.01360896,-0.00070520,0.00398514,0.00066222,-0.
 00000607,-0.00033210,0.31318350,0.00155459,0.00163318,-0.00081018,-0.0
 0017908,0.00001910,0.00010563,-0.00071066,-0.00026340,0.00005095,-0.00
 004098,-0.00001148,-0.00006645,-0.00026063,0.00012062,-0.00009481,0.00
 305293,-0.00538862,0.00071958,-0.01970358,-0.00167550,0.00665948,-0.01
 023284,-0.00141590,0.00198316,0.01345704,0.05061803,0.00093168,0.00001
 605,0.00101909,-0.00038556,0.00000169,-0.00007850,0.00000013,-0.000353
 36,0.00006678,-0.00007917,-0.00011578,-0.00021977,-0.00019268,0.000004
 17,-0.00008319,-0.00014681,0.00029952,0.00086883,-0.01978227,-0.000788
 68,0.00551448,0.02922865,0.00105341,-0.00674582,-0.07899518,-0.0030510
 9,0.06838023,0.00892014,-0.01304618,0.00013165,0.00015691,-0.00032469,
 -0.00040687,0.00057910,-0.00076848,-0.00061817,0.00011691,0.00012398,-
 0.00018934,-0.00141924,-0.00264041,0.00073470,-0.01441021,0.02922736,-
 0.00073211,-0.10468476,-0.07720221,-0.07133492,-0.04878219,-0.00335190
 ,0.01154454,-0.28781740,-0.01575808,0.07203508,0.55150712,0.00890498,-
 0.02446961,0.00141299,0.00000022,-0.00035229,0.00039280,0.00093001,0.0
 0165771,-0.00034373,0.00012052,0.00015484,-0.00003125,-0.00087862,-0.0
 0085051,0.00099160,-0.00107513,-0.00144740,-0.00076660,-0.07719578,-0.
 14781626,-0.09618526,-0.00367061,-0.07227988,0.07970138,-0.01331327,-0
 .04697507,0.00314195,0.03447049,0.47853842,0.01080435,-0.01595864,-0.0
 0331154,0.00000267,0.00119152,0.00027334,0.00004131,0.00129883,0.00026
 927,-0.00012665,-0.00025034,0.00004019,-0.00167615,-0.00272190,0.00105
 003,0.00307103,-0.00726618,0.00380578,-0.07107229,-0.09530623,-0.13671
 167,0.01095889,0.07759978,-0.27953012,0.07109121,0.00430015,-0.0678471
 7,-0.01163191,0.00408916,0.56023249,-0.14784456,-0.11270618,-0.0556707
 4,-0.00098837,0.00232414,0.00625742,-0.00965947,-0.02673558,0.00252363
 ,-0.00045878,-0.00043274,0.00061325,0.00854291,0.01386857,-0.00566242,
 -0.26619106,0.00416295,0.05529091,0.00705921,-0.01869692,0.00056258,0.
 00090711,-0.00514830,0.00145323,-0.01677772,0.03106596,-0.00150322,-0.
 10928665,0.05127819,0.00004528,0.59830672,-0.12270111,-0.24986324,-0.1
 1530477,0.00238279,0.00017822,0.00987871,0.00265187,0.00238139,-0.0028
 0457,0.00028052,0.00079448,0.00278092,-0.01570786,-0.01468906,0.002731
 65,0.00638718,-0.04920846,-0.00475230,0.01074714,-0.02192828,0.0024152
 6,0.00247467,-0.00526639,-0.00036501,-0.00116196,0.00038952,0.00078255
 ,0.05178671,-0.17022297,-0.00781229,0.05969655,0.59061947,-0.02119396,
 -0.05444899,0.01452051,-0.00104741,0.00201031,-0.00704977,0.00118961,-
 0.00011743,-0.00641976,0.00079741,-0.00095155,-0.00196777,-0.00656489,
 -0.00317291,-0.00408040,0.04734207,-0.00462357,-0.05806552,0.00950413,
 -0.02042664,-0.00002111,-0.01414466,0.02939064,-0.00284138,0.00591594,
 -0.00953018,-0.00102633,-0.00009595,-0.00534957,-0.07217714,-0.0439804
 6,0.00728722,0.34133587,-0.02384128,0.00395915,0.02948613,0.00345792,-
 0.00057883,-0.00832784,0.00198806,0.00186633,-0.02140913,0.00068558,-0
 .00001907,-0.00002240,0.00145602,-0.00328262,0.00168304,0.00377614,-0.
 01410374,0.03280585,0.00007971,0.00058115,0.00035294,0.00029527,0.0029
 6508,-0.00092244,0.00258579,-0.00224465,-0.00111065,0.00512028,0.00042
 900,-0.01150775,-0.06360934,0.00316351,0.02227818,0.06800586,0.0136812
 5,-0.02079031,0.04288576,-0.00170295,0.00484527,-0.00694323,-0.0018452
 4,-0.00062381,-0.00693781,0.00048465,-0.00002231,-0.00281676,-0.004889
 88,0.00391582,-0.01934113,-0.01117165,-0.00410865,0.01158316,-0.001923
 61,0.00365553,-0.00151933,0.00246045,-0.00851672,0.00136326,-0.0011644
 6,0.00294950,-0.00099044,-0.00251659,-0.01593700,0.04083614,0.00132336
 ,-0.08318469,0.05993266,0.00726468,0.11781735,-0.00396362,-0.01599607,
 0.00308526,-0.00511162,-0.00266579,-0.02152911,-0.00064809,0.00312114,
 -0.00777771,0.00073877,-0.00062314,-0.00533821,0.00097542,0.00269984,-
 0.01290879,0.01149365,0.01096358,-0.01544001,0.00043437,0.00326721,0.0
 0199196,0.00015907,-0.00055742,0.00182242,-0.00140587,-0.00026622,0.00
 015136,0.00056329,0.01294654,-0.00609346,0.04007055,0.10516263,-0.2022
 0720,-0.04330593,-0.11805229,0.26424350\\0.00347628,-0.00073598,-0.000
 92216,0.00143589,-0.00001379,0.00000019,-0.00000001,0.00089403,0.00000
 001,0.,-0.00000005,0.,-0.00000002,0.,0.,0.,0.00000002,-0.00000001,0.00
 000004,0.00000003,0.00000004,0.,-0.00000002,-0.00000002,0.,-0.00000004
 ,0.,-0.00000004,0.00000004,-0.00000002,-0.00000001,-0.00000013,0.00000
 005,0.00000006,0.00000018,0.00000018\\\@


 IT IS WELL TO REMEMBER THAT MAN IS A PART OF NATURE AND THAT HIS WORKS,
 WHATEVER THEY MAY BE, ARE NO MORE "UNNATURAL" THAN 
 THE FLIGHT OF AN EAGLE OR THE PASSAGE OF A TORNADO.

                                    -- CHARLES MCCARRY IN "THE GREAT SOUTHWEST"
 Job cpu time:  0 days  0 hours  6 minutes 35.2 seconds.
 File lengths (MBytes):  RWF=   1312 Int=      0 D2E=      0 Chk=     32 Scr=     32
 Normal termination of Gaussian 09 at Fri Apr 27 10:55:56 2018.
