 Entering Gaussian System, Link 0=g09
 Input=H2O-mid-field.gjf
 Output=H2O-mid-field.log
 Initial command:
 /share/home/zxchen/g09/l1.exe /scratch/zxchen/Gau-29640.inp -scrdir=/scratch/zxchen/
 Entering Link 1 = /share/home/zxchen/g09/l1.exe PID=     29641.
  
 Copyright (c) 1988,1990,1992,1993,1995,1998,2003,2009,2010,
            Gaussian, Inc.  All Rights Reserved.
  
 This is part of the Gaussian(R) 09 program.  It is based on
 the Gaussian(R) 03 system (copyright 2003, Gaussian, Inc.),
 the Gaussian(R) 98 system (copyright 1998, Gaussian, Inc.),
 the Gaussian(R) 94 system (copyright 1995, Gaussian, Inc.),
 the Gaussian 92(TM) system (copyright 1992, Gaussian, Inc.),
 the Gaussian 90(TM) system (copyright 1990, Gaussian, Inc.),
 the Gaussian 88(TM) system (copyright 1988, Gaussian, Inc.),
 the Gaussian 86(TM) system (copyright 1986, Carnegie Mellon
 University), and the Gaussian 82(TM) system (copyright 1983,
 Carnegie Mellon University). Gaussian is a federally registered
 trademark of Gaussian, Inc.
  
 This software contains proprietary and confidential information,
 including trade secrets, belonging to Gaussian, Inc.
  
 This software is provided under written license and may be
 used, copied, transmitted, or stored only in accord with that
 written license.
  
 The following legend is applicable only to US Government
 contracts under FAR:
  
                    RESTRICTED RIGHTS LEGEND
  
 Use, reproduction and disclosure by the US Government is
 subject to restrictions as set forth in subparagraphs (a)
 and (c) of the Commercial Computer Software - Restricted
 Rights clause in FAR 52.227-19.
  
 Gaussian, Inc.
 340 Quinnipiac St., Bldg. 40, Wallingford CT 06492
  
  
 ---------------------------------------------------------------
 Warning -- This program may not be used in any manner that
 competes with the business of Gaussian, Inc. or will provide
 assistance to any competitor of Gaussian, Inc.  The licensee
 of this program is prohibited from giving any competitor of
 Gaussian, Inc. access to this program.  By using this program,
 the user acknowledges that Gaussian, Inc. is engaged in the
 business of creating and licensing software in the field of
 computational chemistry and represents and warrants to the
 licensee that it is not a competitor of Gaussian, Inc. and that
 it will not use this program in any manner prohibited above.
 ---------------------------------------------------------------
  

 Cite this work as:
 Gaussian 09, Revision B.01,
 M. J. Frisch, G. W. Trucks, H. B. Schlegel, G. E. Scuseria, 
 M. A. Robb, J. R. Cheeseman, G. Scalmani, V. Barone, B. Mennucci, 
 G. A. Petersson, H. Nakatsuji, M. Caricato, X. Li, H. P. Hratchian, 
 A. F. Izmaylov, J. Bloino, G. Zheng, J. L. Sonnenberg, M. Hada, 
 M. Ehara, K. Toyota, R. Fukuda, J. Hasegawa, M. Ishida, T. Nakajima, 
 Y. Honda, O. Kitao, H. Nakai, T. Vreven, J. A. Montgomery, Jr., 
 J. E. Peralta, F. Ogliaro, M. Bearpark, J. J. Heyd, E. Brothers, 
 K. N. Kudin, V. N. Staroverov, T. Keith, R. Kobayashi, J. Normand, 
 K. Raghavachari, A. Rendell, J. C. Burant, S. S. Iyengar, J. Tomasi, 
 M. Cossi, N. Rega, J. M. Millam, M. Klene, J. E. Knox, J. B. Cross, 
 V. Bakken, C. Adamo, J. Jaramillo, R. Gomperts, R. E. Stratmann, 
 O. Yazyev, A. J. Austin, R. Cammi, C. Pomelli, J. W. Ochterski, 
 R. L. Martin, K. Morokuma, V. G. Zakrzewski, G. A. Voth, 
 P. Salvador, J. J. Dannenberg, S. Dapprich, A. D. Daniels, 
 O. Farkas, J. B. Foresman, J. V. Ortiz, J. Cioslowski, 
 and D. J. Fox, Gaussian, Inc., Wallingford CT, 2010.
 
 ******************************************
 Gaussian 09:  EM64L-G09RevB.01 12-Aug-2010
                 6-Mar-2018 
 ******************************************
 %chk=H2O-mid-field.chk
 %nprocshared=24
 Will use up to   24 processors via shared memory.
 ----------------------------------------------------------------------
 # field=z-25 freq opt=(ts,noeigen,calcall,z-matrix) nosymm rb3lyp/6-31
 ++g(d,p)
 ----------------------------------------------------------------------
 1/5=1,10=4,11=1,14=-1,18=40,26=3,38=1/1,3;
 2/12=2,15=1,17=6,18=5,29=3,40=1/2;
 3/5=1,6=6,7=1111,11=2,14=3,15=-25,16=1,25=1,30=1,71=2,74=-5,116=1/1,2,3;
 4//1;
 5/5=2,38=5/2;
 8/6=4,10=90,11=11/1;
 11/6=1,8=1,9=11,15=111,16=1,31=1/1,2,10;
 10/6=1,31=1/2;
 6/7=2,8=2,9=2,10=2,18=1,28=1/1;
 7/10=1,25=1,30=1/1,2,3,16;
 1/5=1,10=4,11=1,14=-1,18=40/3(3);
 2/15=1,29=3/2;
 7/8=1,9=1,25=1,30=1,44=-1/16;
 99//99;
 2/15=1,29=3/2;
 3/5=1,6=6,7=1111,11=2,14=3,15=-25,16=1,25=1,30=1,71=2,74=-5,116=1/1,2,3;
 4/5=5,16=3/1;
 5/5=2,38=5/2;
 8/6=4,10=90,11=11/1;
 11/6=1,8=1,9=11,15=111,16=1,31=1/1,2,10;
 10/6=1,31=1/2;
 7/10=1,25=1,30=1/1,2,3,16;
 1/5=1,10=4,11=1,14=-1,18=40/3(-8);
 2/15=1,29=3/2;
 6/7=2,8=2,9=2,10=2,18=1,19=2,28=1/1;
 7/8=1,9=1,25=1,30=1,44=-1/16;
 99//99;
 -----------
 OH-BACK-MID
 -----------
 Symbolic Z-matrix:
 Charge =  0 Multiplicity = 1
 C
 O                    1     2.28585 
 H                    1    B1       2    A1
 H                    1    B2       2    A2       3    D1       0
 H                    1    B3       2    A3       4    D2       0
 H                    1    B4       2    A4       5    D3       0
 H                    1    B5       2    A5       5    D4       0
 H                    2    B6       1    A6       5    D5       0
 H                    1    B7       2    A7       8    D6       0
 H                    2    B8       1    A8       5    D7       0
 C                    1    B9       2    A9       10   D8       0
 C                    1    B10      11   A10      2    D9       0
 O                    11   B11      1    A11      12   D10      0
       Variables:
  B1                    2.11148                  
  B2                    2.13438                  
  B3                    1.07                     
  B4                    2.05819                  
  B5                    2.12328                  
  B6                    1.04792                  
  B7                    2.11083                  
  B8                    0.96                     
  B9                    1.48493                  
  B10                   1.47551                  
  B11                   1.43                     
  A1                  123.20122                  
  A2                   94.26057                  
  A3                   78.55339                  
  A4                  120.93438                  
  A5                  101.7495                   
  A6                   70.43868                  
  A7                   73.28177                  
  A8                  120.41597                  
  A9                   97.80224                  
  A10                 121.26136                  
  A11                  98.08895                  
  D1                   41.18783                  
  D2                   93.46492                  
  D3                   93.92322                  
  D4                  143.65601                  
  D5                  145.28555                  
  D6                 -111.286                    
  D7                   45.35218                  
  D8                  -75.67965                  
  D9                  105.38324                  
  D10                  68.63585                  
 

 GradGradGradGradGradGradGradGradGradGradGradGradGradGradGradGradGradGrad
 Berny optimization.
 Initialization pass.
                       ----------------------------
                       !    Initial Parameters    !
                       ! (Angstroms and Degrees)  !
 ----------------------                            ----------------------
 !      Name          Value   Derivative information (Atomic Units)     !
 ------------------------------------------------------------------------
 !       B1          2.1115   calculate D2E/DX2 analytically            !
 !       B2          2.1344   calculate D2E/DX2 analytically            !
 !       B3          1.07     calculate D2E/DX2 analytically            !
 !       B4          2.0582   calculate D2E/DX2 analytically            !
 !       B5          2.1233   calculate D2E/DX2 analytically            !
 !       B6          1.0479   calculate D2E/DX2 analytically            !
 !       B7          2.1108   calculate D2E/DX2 analytically            !
 !       B8          0.96     calculate D2E/DX2 analytically            !
 !       B9          1.4849   calculate D2E/DX2 analytically            !
 !       B10         1.4755   calculate D2E/DX2 analytically            !
 !       B11         1.43     calculate D2E/DX2 analytically            !
 !       A1        123.2012   calculate D2E/DX2 analytically            !
 !       A2         94.2606   calculate D2E/DX2 analytically            !
 !       A3         78.5534   calculate D2E/DX2 analytically            !
 !       A4        120.9344   calculate D2E/DX2 analytically            !
 !       A5        101.7495   calculate D2E/DX2 analytically            !
 !       A6         70.4387   calculate D2E/DX2 analytically            !
 !       A7         73.2818   calculate D2E/DX2 analytically            !
 !       A8        120.416    calculate D2E/DX2 analytically            !
 !       A9         97.8022   calculate D2E/DX2 analytically            !
 !       A10       121.2614   calculate D2E/DX2 analytically            !
 !       A11        98.089    calculate D2E/DX2 analytically            !
 !       D1         41.1878   calculate D2E/DX2 analytically            !
 !       D2         93.4649   calculate D2E/DX2 analytically            !
 !       D3         93.9232   calculate D2E/DX2 analytically            !
 !       D4        143.656    calculate D2E/DX2 analytically            !
 !       D5        145.2855   calculate D2E/DX2 analytically            !
 !       D6       -111.286    calculate D2E/DX2 analytically            !
 !       D7         45.3522   calculate D2E/DX2 analytically            !
 !       D8        -75.6797   calculate D2E/DX2 analytically            !
 !       D9        105.3832   calculate D2E/DX2 analytically            !
 !       D10        68.6358   calculate D2E/DX2 analytically            !
 ------------------------------------------------------------------------
 Trust Radius=3.00D-01 FncErr=1.00D-07 GrdErr=1.00D-06
 Number of steps in this run=     42 maximum allowed number of steps=    100.
 Search for a saddle point of order  1.
 GradGradGradGradGradGradGradGradGradGradGradGradGradGradGradGradGradGrad

 ---------------------------------------------------------------------------------------------------
                            Z-MATRIX (ANGSTROMS AND DEGREES)
   CD    Cent   Atom    N1       Length/X        N2       Alpha/Y        N3        Beta/Z          J
 ---------------------------------------------------------------------------------------------------
      1      1  C 
      2      2  O        1   2.285847(     1)
      3      3  H        1   2.111485(     2)      2  123.201(    13)
      4      4  H        1   2.134380(     3)      2   94.261(    14)      3   41.188(    24)      0
      5      5  H        1   1.070000(     4)      2   78.553(    15)      4   93.465(    25)      0
      6      6  H        1   2.058188(     5)      2  120.934(    16)      5   93.923(    26)      0
      7      7  H        1   2.123275(     6)      2  101.750(    17)      5  143.656(    27)      0
      8      8  H        2   1.047923(     7)      1   70.439(    18)      5  145.286(    28)      0
      9      9  H        1   2.110834(     8)      2   73.282(    19)      8 -111.286(    29)      0
     10     10  H        2   0.960000(     9)      1  120.416(    20)      5   45.352(    30)      0
     11     11  C        1   1.484928(    10)      2   97.802(    21)     10  -75.680(    31)      0
     12     12  C        1   1.475515(    11)     11  121.261(    22)      2  105.383(    32)      0
     13     13  O       11   1.430000(    12)      1   98.089(    23)     12   68.636(    33)      0
 ---------------------------------------------------------------------------------------------------
                         Z-Matrix orientation:                         
 ---------------------------------------------------------------------
 Center     Atomic      Atomic             Coordinates (Angstroms)
 Number     Number       Type             X           Y           Z
 ---------------------------------------------------------------------
      1          6           0        0.000000    0.000000    0.000000
      2          8           0        0.000000    0.000000    2.285847
      3          1           0        1.766791    0.000000   -1.156209
      4          1           0        1.601799   -1.401668   -0.158568
      5          1           0       -0.737048   -0.746036    0.212347
      6          1           0       -1.168051    1.323775   -1.058024
      7          1           0        0.300400    2.056967   -0.432370
      8          1           0        0.970487    0.182197    1.934986
      9          1           0       -1.068860    1.715940    0.607214
     10          1           0        0.010106   -0.827816    2.771870
     11          6           0        1.429804   -0.346459   -0.201585
     12          6           0       -0.495040    1.371242   -0.227540
     13          8           0        1.972698    0.393544    0.895029
 ---------------------------------------------------------------------
                    Distance matrix (angstroms):
                    1          2          3          4          5
     1  C    0.000000
     2  O    2.285847   0.000000
     3  H    2.111485   3.869018   0.000000
     4  H    2.134380   3.241234   1.728347   0.000000
     5  H    1.070000   2.323620   2.949359   2.457160   0.000000
     6  H    2.058188   3.781295   3.221074   3.988625   2.466520
     7  H    2.123275   3.421996   2.627805   3.705505   3.057578
     8  H    2.172374   1.047923   3.197308   2.700028   2.597070
     9  H    2.110834   2.627684   3.754334   4.175922   2.515422
    10  H    2.892861   0.960000   4.381897   3.383824   2.667599
    11  C    1.484928   2.889929   1.070000   1.070000   2.241929
    12  C    1.475515   2.905595   2.803321   3.477143   2.175991
    13  O    2.201702   2.445566   2.098774   2.114337   3.017850
                    6          7          8          9         10
     6  H    0.000000
     7  H    1.756521   0.000000
     8  H    3.851578   3.093243   0.000000
     9  H    1.713665   1.752685   2.876505   0.000000
    10  H    4.548130   4.321273   1.625679   3.510071   0.000000
    11  C    3.204999   2.665571   2.248418   3.339306   3.329968
    12  C    1.070000   1.070000   2.870212   1.070000   3.753331
    13  O    3.813667   2.706574   1.459660   3.329061   2.977587
                   11         12         13
    11  C    0.000000
    12  C    2.579960   0.000000
    13  O    1.430000   2.881977   0.000000
 Symmetry turned off by external request.
 Stoichiometry    C3H8O2
 Framework group  C1[X(C3H8O2)]
 Deg. of freedom    33
 Full point group                 C1      NOp   1
 Rotational constants (GHZ):      4.9557473      4.6524424      3.0631878
 Standard basis: 6-31++G(d,p) (6D, 7F)
 The following finite field(s) will be applied:
 An electric field of              0.0000  0.0000 -0.0025
 Integral buffers will be    131072 words long.
 Raffenetti 2 integral format.
 Two-electron integral symmetry is turned off.
   143 basis functions,   224 primitive gaussians,   143 cartesian basis functions
    21 alpha electrons       21 beta electrons
       nuclear repulsion energy       189.6946520502 Hartrees.
 NAtoms=   13 NActive=   13 NUniq=   13 SFac= 1.00D+00 NAtFMM=   50 NAOKFM=F Big=F
 One-electron integrals computed using PRISM.
 PrsmSu:  requested number of processors reduced to:  10 ShMem   1 Linda.
 NBasis=   143 RedAO= T  NBF=   143
 NBsUse=   143 1.00D-06 NBFU=   143
 The nuclear repulsion energy is now       189.5737403166 hartrees.
 Harris functional with IExCor=  402 diagonalized for initial guess.
 ExpMin= 3.60D-02 ExpMax= 5.48D+03 ExpMxC= 8.25D+02 IAcc=3 IRadAn=         0 AccDes= 0.00D+00
 HarFok:  IExCor=  402 AccDes= 0.00D+00 IRadAn=         0 IDoV= 1
 ScaDFX=  1.000000  1.000000  1.000000  1.000000
 FoFCou: FMM=F IPFlag=           0 FMFlag=      100000 FMFlg1=           0
         NFxFlg=           0 DoJE=T BraDBF=F KetDBF=T FulRan=T
         Omega=  0.000000  0.000000  1.000000  0.000000  0.000000 ICntrl=     500 IOpCl=  0
         NMat0=    1 NMatS0=    1 NMatT0=    0 NMatD0=    1 NMtDS0=    0 NMtDT0=    0
         I1Cent=           4 NGrid=           0.
 Symmetry not used in FoFCou.
 Requested convergence on RMS density matrix=1.00D-08 within 128 cycles.
 Requested convergence on MAX density matrix=1.00D-06.
 Requested convergence on             energy=1.00D-06.
 No special actions if energy rises.
 EnCoef did     3 forward-backward iterations
 EnCoef did     2 forward-backward iterations
 SCF Done:  E(RB3LYP) =  -269.487507917     A.U. after   15 cycles
             Convg  =    0.7472D-08             -V/T =  2.0088
 Range of M.O.s used for correlation:     1   143
 NBasis=   143 NAE=    21 NBE=    21 NFC=     0 NFV=     0
 NROrb=    143 NOA=    21 NOB=    21 NVA=   122 NVB=   122

 **** Warning!!: The largest alpha MO coefficient is  0.46258785D+02

 PrsmSu:  requested number of processors reduced to:  10 ShMem   1 Linda.
 PrsmSu:  requested number of processors reduced to:  17 ShMem   1 Linda.
 Symmetrizing basis deriv contribution to polar:
 IMax=3 JMax=2 DiffMx= 0.00D+00
 G2DrvN: will do     3 centers at a time, making    5 passes doing MaxLOS=2.
 Estimated number of processors is:   15
 Calling FoFCou, ICntrl=  3107 FMM=F I1Cent=   0 AccDes= 0.00D+00.
 CoulSu:  requested number of processors reduced to:  15 ShMem   1 Linda.
 Calling FoFCou, ICntrl=  3107 FMM=F I1Cent=   0 AccDes= 0.00D+00.
 CoulSu:  requested number of processors reduced to:  15 ShMem   1 Linda.
 Calling FoFCou, ICntrl=  3107 FMM=F I1Cent=   0 AccDes= 0.00D+00.
 CoulSu:  requested number of processors reduced to:  15 ShMem   1 Linda.
 Calling FoFCou, ICntrl=  3107 FMM=F I1Cent=   0 AccDes= 0.00D+00.
 CoulSu:  requested number of processors reduced to:  15 ShMem   1 Linda.
 Calling FoFCou, ICntrl=  3107 FMM=F I1Cent=   0 AccDes= 0.00D+00.
 CoulSu:  requested number of processors reduced to:  15 ShMem   1 Linda.
 FoFDir/FoFCou used for L=0 through L=2.
 End of G2Drv Frequency-dependent properties file   721 does not exist.
 End of G2Drv Frequency-dependent properties file   722 does not exist.
          IDoAtm=1111111111111
          Differentiating once with respect to electric field.
                with respect to dipole field.
          Differentiating once with respect to nuclear coordinates.
 PrRfSu:  requested number of processors reduced to:  16 ShMem   1 Linda.
 CalDSu:  requested number of processors reduced to:  22 ShMem   1 Linda.
 PrRfSu:  requested number of processors reduced to:  16 ShMem   1 Linda.
 CalDSu:  requested number of processors reduced to:  22 ShMem   1 Linda.
          There are    42 degrees of freedom in the 1st order CPHF.  IDoFFX=5.
     42 vectors produced by pass  0 Test12= 6.10D-15 2.38D-09 XBig12= 1.12D+02 8.64D+00.
 AX will form    21 AO Fock derivatives at one time.
 PrRfSu:  requested number of processors reduced to:  16 ShMem   1 Linda.
 CalDSu:  requested number of processors reduced to:  22 ShMem   1 Linda.
 PrRfSu:  requested number of processors reduced to:  16 ShMem   1 Linda.
 CalDSu:  requested number of processors reduced to:  22 ShMem   1 Linda.
     39 vectors produced by pass  1 Test12= 6.10D-15 2.38D-09 XBig12= 4.16D+01 1.47D+00.
 PrRfSu:  requested number of processors reduced to:  15 ShMem   1 Linda.
 CalDSu:  requested number of processors reduced to:  19 ShMem   1 Linda.
     39 vectors produced by pass  2 Test12= 6.10D-15 2.38D-09 XBig12= 4.85D-01 1.15D-01.
 PrRfSu:  requested number of processors reduced to:  15 ShMem   1 Linda.
 CalDSu:  requested number of processors reduced to:  19 ShMem   1 Linda.
     39 vectors produced by pass  3 Test12= 6.10D-15 2.38D-09 XBig12= 1.52D-03 6.93D-03.
 PrRfSu:  requested number of processors reduced to:  15 ShMem   1 Linda.
 CalDSu:  requested number of processors reduced to:  19 ShMem   1 Linda.
     39 vectors produced by pass  4 Test12= 6.10D-15 2.38D-09 XBig12= 2.24D-06 2.52D-04.
 PrRfSu:  requested number of processors reduced to:  15 ShMem   1 Linda.
 CalDSu:  requested number of processors reduced to:  19 ShMem   1 Linda.
     25 vectors produced by pass  5 Test12= 6.10D-15 2.38D-09 XBig12= 1.91D-09 9.69D-06.
 PrRfSu:  requested number of processors reduced to:  16 ShMem   1 Linda.
 CalDSu:  requested number of processors reduced to:  21 ShMem   1 Linda.
      3 vectors produced by pass  6 Test12= 6.10D-15 2.38D-09 XBig12= 1.51D-12 2.05D-07.
      3 vectors produced by pass  7 Test12= 6.10D-15 2.38D-09 XBig12= 9.21D-15 2.04D-08.
      1 vectors produced by pass  8 Test12= 6.10D-15 2.38D-09 XBig12= 1.15D-16 2.71D-09.
 Inverted reduced A of dimension   230 with in-core refinement.
 Isotropic polarizability for W=    0.000000       57.03 Bohr**3.
 End of Minotr Frequency-dependent properties file   721 does not exist.
 End of Minotr Frequency-dependent properties file   722 does not exist.

 **********************************************************************

            Population analysis using the SCF density.

 **********************************************************************

 Alpha  occ. eigenvalues --  -19.14398 -19.09879 -10.29628 -10.23684 -10.20818
 Alpha  occ. eigenvalues --   -0.99526  -0.94006  -0.81115  -0.70040  -0.60573
 Alpha  occ. eigenvalues --   -0.51830  -0.50731  -0.46188  -0.45153  -0.41350
 Alpha  occ. eigenvalues --   -0.40579  -0.38666  -0.35412  -0.30853  -0.23499
 Alpha  occ. eigenvalues --   -0.23216
 Alpha virt. eigenvalues --   -0.11101  -0.02018   0.00072   0.00657   0.01993
 Alpha virt. eigenvalues --    0.03743   0.04448   0.05464   0.06485   0.07441
 Alpha virt. eigenvalues --    0.08643   0.09995   0.11489   0.11753   0.11999
 Alpha virt. eigenvalues --    0.12391   0.13449   0.14492   0.15123   0.15391
 Alpha virt. eigenvalues --    0.17999   0.19194   0.20780   0.21165   0.22081
 Alpha virt. eigenvalues --    0.23912   0.24439   0.25377   0.27672   0.28870
 Alpha virt. eigenvalues --    0.29621   0.30938   0.32379   0.33120   0.34548
 Alpha virt. eigenvalues --    0.35982   0.37611   0.39078   0.40788   0.44281
 Alpha virt. eigenvalues --    0.61656   0.66304   0.68662   0.71784   0.73616
 Alpha virt. eigenvalues --    0.75920   0.77023   0.79358   0.83586   0.92752
 Alpha virt. eigenvalues --    0.95069   0.95176   0.97682   1.01087   1.04540
 Alpha virt. eigenvalues --    1.07242   1.11847   1.12727   1.18315   1.21177
 Alpha virt. eigenvalues --    1.24951   1.26273   1.31399   1.32544   1.34554
 Alpha virt. eigenvalues --    1.37999   1.43821   1.46630   1.49693   1.56081
 Alpha virt. eigenvalues --    1.59465   1.63821   1.69125   1.74687   1.77420
 Alpha virt. eigenvalues --    1.79716   1.87326   1.89721   1.91600   1.91929
 Alpha virt. eigenvalues --    1.94143   2.00862   2.02670   2.06193   2.13265
 Alpha virt. eigenvalues --    2.14202   2.19126   2.23402   2.31373   2.34533
 Alpha virt. eigenvalues --    2.36013   2.39046   2.41379   2.42325   2.50554
 Alpha virt. eigenvalues --    2.55381   2.59299   2.59368   2.65161   2.66894
 Alpha virt. eigenvalues --    2.72811   2.76223   2.86292   2.88862   2.90890
 Alpha virt. eigenvalues --    2.93179   2.97778   3.01655   3.10557   3.30049
 Alpha virt. eigenvalues --    3.34162   3.41920   3.45301   3.47597   3.48676
 Alpha virt. eigenvalues --    3.56282   3.74913   4.21315   4.33834   4.41940
 Alpha virt. eigenvalues --    4.53361   4.67585
          Condensed to atoms (all electrons):
              1          2          3          4          5          6
     1  C    7.220810   0.146653   0.008255  -0.109165   0.338476  -0.078117
     2  O    0.146653   8.450007  -0.005609  -0.001824  -0.017217  -0.002054
     3  H    0.008255  -0.005609   0.767989  -0.151559   0.048904  -0.014016
     4  H   -0.109165  -0.001824  -0.151559   0.768094  -0.067145   0.010917
     5  H    0.338476  -0.017217   0.048904  -0.067145   0.587239  -0.020108
     6  H   -0.078117  -0.002054  -0.014016   0.010917  -0.020108   0.593094
     7  H   -0.136474  -0.000332   0.002708   0.000730   0.000856  -0.024839
     8  H   -0.029936   0.159401   0.012962  -0.011800   0.008210  -0.000764
     9  H   -0.012663   0.007952   0.006735  -0.006568   0.009028  -0.044836
    10  H   -0.064112   0.239871   0.000114   0.002042  -0.002060   0.001093
    11  C   -0.518683  -0.058830   0.354626   0.389222  -0.014008  -0.017347
    12  C   -1.071444  -0.050381  -0.095366   0.095798  -0.103720   0.429473
    13  O   -0.106887  -0.133752  -0.063651  -0.051220   0.018352   0.015426
              7          8          9         10         11         12
     1  C   -0.136474  -0.029936  -0.012663  -0.064112  -0.518683  -1.071444
     2  O   -0.000332   0.159401   0.007952   0.239871  -0.058830  -0.050381
     3  H    0.002708   0.012962   0.006735   0.000114   0.354626  -0.095366
     4  H    0.000730  -0.011800  -0.006568   0.002042   0.389222   0.095798
     5  H    0.000856   0.008210   0.009028  -0.002060  -0.014008  -0.103720
     6  H   -0.024839  -0.000764  -0.044836   0.001093  -0.017347   0.429473
     7  H    0.461952   0.001124  -0.015132   0.000625   0.007726   0.470151
     8  H    0.001124   0.318756  -0.001330  -0.011437   0.001282  -0.015963
     9  H   -0.015132  -0.001330   0.463903  -0.003362   0.015978   0.379120
    10  H    0.000625  -0.011437  -0.003362   0.412172   0.022530   0.036658
    11  C    0.007726   0.001282   0.015978   0.022530   5.459337   0.373442
    12  C    0.470151  -0.015963   0.379120   0.036658   0.373442   6.211492
    13  O    0.009542   0.122433  -0.022387   0.007517   0.249304   0.029328
             13
     1  C   -0.106887
     2  O   -0.133752
     3  H   -0.063651
     4  H   -0.051220
     5  H    0.018352
     6  H    0.015426
     7  H    0.009542
     8  H    0.122433
     9  H   -0.022387
    10  H    0.007517
    11  C    0.249304
    12  C    0.029328
    13  O    8.528229
 Mulliken atomic charges:
              1
     1  C    0.413286
     2  O   -0.733885
     3  H    0.127909
     4  H    0.132478
     5  H    0.213195
     6  H    0.152079
     7  H    0.221362
     8  H    0.447064
     9  H    0.223563
    10  H    0.358351
    11  C   -0.264580
    12  C   -0.688588
    13  O   -0.602234
 Sum of Mulliken atomic charges =   0.00000
 Mulliken charges with hydrogens summed into heavy atoms:
              1
     1  C    0.626481
     2  O    0.071530
    11  C   -0.004193
    12  C   -0.091584
    13  O   -0.602234
 Sum of Mulliken charges with hydrogens summed into heavy atoms =   0.00000
 APT atomic charges:
              1
     1  C    0.675160
     2  O   -0.731015
     3  H   -0.021779
     4  H   -0.056778
     5  H    0.002007
     6  H    0.031502
     7  H    0.042031
     8  H    0.412485
     9  H    0.078390
    10  H    0.249222
    11  C    0.318950
    12  C   -0.167466
    13  O   -0.832709
 Sum of APT charges=   0.00000
 APT Atomic charges with hydrogens summed into heavy atoms:
              1
     1  C    0.677167
     2  O   -0.069308
     3  H    0.000000
     4  H    0.000000
     5  H    0.000000
     6  H    0.000000
     7  H    0.000000
     8  H    0.000000
     9  H    0.000000
    10  H    0.000000
    11  C    0.240393
    12  C   -0.015543
    13  O   -0.832709
 Sum of APT charges=   0.00000
 Electronic spatial extent (au):  <R**2>=            588.1739
 Charge=              0.0000 electrons
 Dipole moment (field-independent basis, Debye):
    X=             -3.1891    Y=             -1.8733    Z=             -2.2186  Tot=              4.3130
 Quadrupole moment (field-independent basis, Debye-Ang):
   XX=            -39.8648   YY=            -29.8158   ZZ=            -33.0363
   XY=             -3.0034   XZ=             -2.4875   YZ=             -5.0352
 Traceless Quadrupole moment (field-independent basis, Debye-Ang):
   XX=             -5.6258   YY=              4.4232   ZZ=              1.2026
   XY=             -3.0034   XZ=             -2.4875   YZ=             -5.0352
 Octapole moment (field-independent basis, Debye-Ang**2):
  XXX=            -73.7703  YYY=            -27.4712  ZZZ=            -49.4022  XYY=            -19.9426
  XXY=            -14.7332  XXZ=            -27.5558  XZZ=            -16.2439  YZZ=            -21.3764
  YYZ=            -14.6424  XYZ=             -1.7323
 Hexadecapole moment (field-independent basis, Debye-Ang**3):
 XXXX=           -334.3762 YYYY=           -146.1637 ZZZZ=           -282.3867 XXXY=              0.4340
 XXXZ=            -50.3738 YYYX=             11.3641 YYYZ=             -1.0976 ZZZX=            -18.1170
 ZZZY=            -33.4411 XXYY=            -74.5404 XXZZ=           -102.2207 YYZZ=            -66.6168
 XXYZ=             -2.8070 YYXZ=            -11.7239 ZZXY=              4.6606
 N-N= 1.895737403166D+02 E-N=-1.009478143196D+03  KE= 2.671263083427D+02
  Exact polarizability:  62.005  -3.404  47.080   0.926  -3.289  61.995
 Approx polarizability: 105.088   3.107  62.421  10.796  -0.838  91.419
 PrsmSu:  requested number of processors reduced to:  10 ShMem   1 Linda.
 PrsmSu:  requested number of processors reduced to:  10 ShMem   1 Linda.
 Calling FoFJK, ICntrl=    100127 FMM=F ISym2X=0 I1Cent= 0 IOpClX= 0 NMat=1 NMatS=1 NMatT=0.
 CoulSu:  requested number of processors reduced to:  10 ShMem   1 Linda.
 CalDSu:  requested number of processors reduced to:  23 ShMem   1 Linda.
 -------------------------------------------------------------------
 Center     Atomic                   Forces (Hartrees/Bohr)
 Number     Number              X              Y              Z
 -------------------------------------------------------------------
      1        6           0.011146279    0.007699714    0.003613575
      2        8          -0.001558822    0.005987154   -0.006870963
      3        1           0.008778802    0.010149989   -0.019480763
      4        1           0.004034474   -0.020534758    0.003385697
      5        1          -0.008069366   -0.008479724    0.001995497
      6        1          -0.014330574   -0.000833145   -0.017492209
      7        1           0.011049137    0.009085646   -0.002212300
      8        1           0.001795577    0.001415193    0.000793917
      9        1          -0.008612008    0.005184028    0.013942955
     10        1          -0.000368674   -0.006882208    0.004667613
     11        6          -0.006375472    0.020717506    0.031535778
     12        6           0.011037010   -0.012160705    0.004841109
     13        8          -0.008526363   -0.011348688   -0.018719906
 -------------------------------------------------------------------
 Cartesian Forces:  Max     0.031535778 RMS     0.011132835
 -----------------------------------------------------------------------------------------------
                       Internal Coordinate Forces (Hartree/Bohr or radian)
  Cent   Atom   N1       Length/X         N2         Alpha/Y        N3         Beta/Z          J
 -----------------------------------------------------------------------------------------------
      1  C 
      2  O        1  -0.001409(     1)
      3  H        1   0.018013(     2)      2   0.045860(    13)
      4  H        1   0.016262(     3)      2  -0.018580(    14)      3   0.033802(    24)     0
      5  H        1   0.011867(     4)      2   0.000742(    15)      4  -0.017669(    25)     0
      6  H        1   0.016589(     5)      2   0.040649(    16)      5  -0.037688(    26)     0
      7  H        1   0.010816(     6)      2   0.000040(    17)      5   0.037791(    27)     0
      8  H        2   0.001643(     7)      1   0.002825(    18)      5   0.019432(    28)     0
      9  H        1   0.012586(     8)      2  -0.042992(    19)      8  -0.017455(    29)     0
     10  H        2   0.008294(     9)      1   0.000986(    20)      5  -0.002094(    30)     0
     11  C        1  -0.018274(    10)      2  -0.026894(    21)     10   0.001386(    31)     0
     12  C        1  -0.015751(    11)     11  -0.015114(    22)      2  -0.006475(    32)     0
     13  O       11  -0.023465(    12)      1   0.000767(    23)     12  -0.002958(    33)     0
 -----------------------------------------------------------------------------------------------
 Internal  Forces:  Max     0.045860438 RMS     0.020918289

 GradGradGradGradGradGradGradGradGradGradGradGradGradGradGradGradGradGrad
 Berny optimization.
 Search for a saddle point.
 Step number   1 out of a maximum of   42
 All quantities printed in internal units (Hartrees-Bohrs-Radians)
 Swaping is turned off.
 Second derivative matrix not updated -- analytic derivatives used.
 ITU=  0
     Eigenvalues ---   -0.09526  -0.03464   0.00074   0.02153   0.02458
     Eigenvalues ---    0.03756   0.04689   0.05309   0.06361   0.06756
     Eigenvalues ---    0.06977   0.09111   0.10592   0.13126   0.15010
     Eigenvalues ---    0.20899   0.27337   0.33824   0.39734   0.41907
     Eigenvalues ---    0.48762   0.52038   0.55811   0.91974   1.28931
     Eigenvalues ---    1.61127   2.02813   3.59229   4.44070   5.89985
     Eigenvalues ---    8.40556  23.40335
 Eigenvectors required to have negative eigenvalues:
                          A5        A4        D3        D6        A7
   1                    0.51105  -0.47529  -0.44572   0.41255  -0.26151
                          D5        A3        A11       D7        A8
   1                   -0.16667  -0.09926  -0.08536  -0.07068   0.06367
 RFO step:  Lambda0=2.810321590D-06 Lambda=-3.47312631D-02.
 Linear search not attempted -- option 19 set.
 Maximum step size (   0.300) exceeded in Quadratic search.
    -- Step size scaled by   0.395
 Variable       Old X    -DE/DX   Delta X   Delta X   Delta X     New X
                                 (Linear)    (Quad)   (Total)
    B1        3.99013   0.01801   0.00000   0.07833   0.07833   4.06846
    B2        4.03339   0.01626   0.00000   0.01248   0.01248   4.04588
    B3        2.02201   0.01187   0.00000   0.00551   0.00551   2.02752
    B4        3.88941   0.01659   0.00000   0.00704   0.00704   3.89645
    B5        4.01241   0.01082   0.00000   0.00732   0.00732   4.01973
    B6        1.98029   0.00164   0.00000  -0.11375  -0.11375   1.86654
    B7        3.98890   0.01259   0.00000   0.02344   0.02344   4.01234
    B8        1.81414   0.00829   0.00000   0.00382   0.00382   1.81795
    B9        2.80611  -0.01827   0.00000  -0.02880  -0.02880   2.77731
   B10        2.78832  -0.01575   0.00000   0.00380   0.00380   2.79212
   B11        2.70231  -0.02347   0.00000  -0.02385  -0.02385   2.67846
    A1        2.15027   0.04586   0.00000   0.08708   0.08708   2.23735
    A2        1.64516  -0.01858   0.00000   0.03796   0.03796   1.68312
    A3        1.37102   0.00074   0.00000  -0.12686  -0.12686   1.24415
    A4        2.11070   0.04065   0.00000   0.03527   0.03527   2.14598
    A5        1.77586   0.00004   0.00000  -0.02140  -0.02140   1.75447
    A6        1.22939   0.00282   0.00000   0.00882   0.00882   1.23820
    A7        1.27901  -0.04299   0.00000   0.01518   0.01518   1.29419
    A8        2.10166   0.00099   0.00000   0.07573   0.07573   2.17738
    A9        1.70697  -0.02689   0.00000   0.10304   0.10304   1.81001
   A10        2.11641  -0.01511   0.00000   0.00738   0.00738   2.12379
   A11        1.71198   0.00077   0.00000  -0.12603  -0.12603   1.58595
    D1        0.71886   0.03380   0.00000  -0.01245  -0.01245   0.70641
    D2        1.63127  -0.01767   0.00000  -0.01862  -0.01862   1.61265
    D3        1.63927  -0.03769   0.00000   0.01283   0.01283   1.65209
    D4        2.50727   0.03779   0.00000  -0.00782  -0.00782   2.49945
    D5        2.53571   0.01943   0.00000   0.00155   0.00155   2.53727
    D6       -1.94231  -0.01745   0.00000  -0.03898  -0.03898  -1.98128
    D7        0.79154  -0.00209   0.00000   0.00509   0.00509   0.79663
    D8       -1.32086   0.00139   0.00000   0.02889   0.02889  -1.29197
    D9        1.83928  -0.00648   0.00000   0.07128   0.07128   1.91056
   D10        1.19792  -0.00296   0.00000   0.03242   0.03242   1.23034
         Item               Value     Threshold  Converged?
 Maximum Force            0.045860     0.000450     NO 
 RMS     Force            0.021241     0.000300     NO 
 Maximum Displacement     0.126862     0.001800     NO 
 RMS     Displacement     0.053033     0.001200     NO 
 Predicted change in Energy=-4.417182D-03
 GradGradGradGradGradGradGradGradGradGradGradGradGradGradGradGradGradGrad

 ---------------------------------------------------------------------------------------------------
                            Z-MATRIX (ANGSTROMS AND DEGREES)
   CD    Cent   Atom    N1       Length/X        N2       Alpha/Y        N3        Beta/Z          J
 ---------------------------------------------------------------------------------------------------
      1      1  C 
      2      2  O        1   2.285847(     1)
      3      3  H        1   2.152937(     2)      2  128.191(    13)
      4      4  H        1   2.140987(     3)      2   96.436(    14)      3   40.474(    24)      0
      5      5  H        1   1.072918(     4)      2   71.285(    15)      4   92.398(    25)      0
      6      6  H        1   2.061913(     5)      2  122.955(    16)      5   94.658(    26)      0
      7      7  H        1   2.127150(     6)      2  100.524(    17)      5  143.208(    27)      0
      8      8  H        2   0.987729(     7)      1   70.944(    18)      5  145.375(    28)      0
      9      9  H        1   2.123240(     8)      2   74.152(    19)      8 -113.519(    29)      0
     10     10  H        2   0.962020(     9)      1  124.755(    20)      5   45.644(    30)      0
     11     11  C        1   1.469688(    10)      2  103.706(    21)     10  -74.024(    31)      0
     12     12  C        1   1.477528(    11)     11  121.684(    22)      2  109.467(    32)      0
     13     13  O       11   1.417381(    12)      1   90.868(    23)     12   70.493(    33)      0
 ---------------------------------------------------------------------------------------------------
                         Z-Matrix orientation:                         
 ---------------------------------------------------------------------
 Center     Atomic      Atomic             Coordinates (Angstroms)
 Number     Number       Type             X           Y           Z
 ---------------------------------------------------------------------
      1          6           0        0.000000    0.000000    0.000000
      2          8           0        0.000000    0.000000    2.285847
      3          1           0        1.692120    0.000000   -1.331116
      4          1           0        1.618375   -1.380977   -0.239975
      5          1           0       -0.691380   -0.744735    0.344263
      6          1           0       -1.168190    1.276213   -1.121649
      7          1           0        0.221521    2.079606   -0.388503
      8          1           0        0.911463    0.202105    1.963360
      9          1           0       -1.201187    1.651992    0.579844
     10          1           0        0.038217   -0.789471    2.834260
     11          6           0        1.390089   -0.326147   -0.348228
     12          6           0       -0.559907    1.348990   -0.223207
     13          8           0        1.868165    0.477270    0.717104
 ---------------------------------------------------------------------
                    Distance matrix (angstroms):
                    1          2          3          4          5
     1  C    0.000000
     2  O    2.285847   0.000000
     3  H    2.152937   3.993205   0.000000
     4  H    2.140987   3.302425   1.761569   0.000000
     5  H    1.072918   2.191435   3.007091   2.465990   0.000000
     6  H    2.061913   3.821573   3.139104   3.950058   2.541747
     7  H    2.127150   3.394993   2.715868   3.734822   3.057325
     8  H    2.174027   0.987729   3.391731   2.803668   2.467202
     9  H    2.123240   2.661273   3.840843   4.221485   2.461646
    10  H    2.942406   0.962020   4.550716   3.506808   2.595072
    11  C    1.469688   2.996175   1.078733   1.084665   2.233220
    12  C    1.477528   2.903208   2.849362   3.492551   2.173244
    13  O    2.057199   2.485715   2.110446   2.105108   2.860696
                    6          7          8          9         10
     6  H    0.000000
     7  H    1.764721   0.000000
     8  H    3.872460   3.087440   0.000000
     9  H    1.742808   1.773316   2.911971   0.000000
    10  H    4.622952   4.318727   1.582482   3.546724   0.000000
    11  C    3.116173   2.674850   2.419002   3.389552   3.488618
    12  C    1.087430   1.082475   2.874256   1.071420   3.778739
    13  O    3.638513   2.549761   1.595039   3.289337   3.071758
                   11         12         13
    11  C    0.000000
    12  C    2.573752   0.000000
    13  O    1.417381   2.745836   0.000000
 Symmetry turned off by external request.
 Stoichiometry    C3H8O2
 Framework group  C1[X(C3H8O2)]
 Deg. of freedom    33
 Full point group                 C1      NOp   1
 Rotational constants (GHZ):      5.1283898      4.5783303      3.0783261
 Standard basis: 6-31++G(d,p) (6D, 7F)
 The following finite field(s) will be applied:
 An electric field of              0.0000  0.0000 -0.0025
 Integral buffers will be    131072 words long.
 Raffenetti 2 integral format.
 Two-electron integral symmetry is turned off.
   143 basis functions,   224 primitive gaussians,   143 cartesian basis functions
    21 alpha electrons       21 beta electrons
       nuclear repulsion energy       190.5050061161 Hartrees.
 NAtoms=   13 NActive=   13 NUniq=   13 SFac= 1.00D+00 NAtFMM=   50 NAOKFM=F Big=F
 One-electron integrals computed using PRISM.
 PrsmSu:  requested number of processors reduced to:  10 ShMem   1 Linda.
 NBasis=   143 RedAO= T  NBF=   143
 NBsUse=   143 1.00D-06 NBFU=   143
 The nuclear repulsion energy is now       190.3952343587 hartrees.
 Initial guess read from the read-write file.
 B after Tr=     0.000000    0.000000    0.000000
         Rot=    1.000000    0.000000    0.000000    0.000000 Ang=   0.00 deg.
 Harris functional with IExCor=  402 diagonalized for initial guess.
 ExpMin= 3.60D-02 ExpMax= 5.48D+03 ExpMxC= 8.25D+02 IAcc=3 IRadAn=         0 AccDes= 0.00D+00
 HarFok:  IExCor=  402 AccDes= 0.00D+00 IRadAn=         0 IDoV= 1
 ScaDFX=  1.000000  1.000000  1.000000  1.000000
 FoFCou: FMM=F IPFlag=           0 FMFlag=      100000 FMFlg1=           0
         NFxFlg=           0 DoJE=T BraDBF=F KetDBF=T FulRan=T
         Omega=  0.000000  0.000000  1.000000  0.000000  0.000000 ICntrl=     500 IOpCl=  0
         NMat0=    1 NMatS0=    1 NMatT0=    0 NMatD0=    1 NMtDS0=    0 NMtDT0=    0
         I1Cent=           4 NGrid=           0.
 Symmetry not used in FoFCou.
 Requested convergence on RMS density matrix=1.00D-08 within 128 cycles.
 Requested convergence on MAX density matrix=1.00D-06.
 Requested convergence on             energy=1.00D-06.
 No special actions if energy rises.
 SCF Done:  E(RB3LYP) =  -269.491582323     A.U. after   13 cycles
             Convg  =    0.3763D-08             -V/T =  2.0087
 Range of M.O.s used for correlation:     1   143
 NBasis=   143 NAE=    21 NBE=    21 NFC=     0 NFV=     0
 NROrb=    143 NOA=    21 NOB=    21 NVA=   122 NVB=   122

 **** Warning!!: The largest alpha MO coefficient is  0.48008974D+02

 PrsmSu:  requested number of processors reduced to:  10 ShMem   1 Linda.
 PrsmSu:  requested number of processors reduced to:  17 ShMem   1 Linda.
 Symmetrizing basis deriv contribution to polar:
 IMax=3 JMax=2 DiffMx= 0.00D+00
 G2DrvN: will do     3 centers at a time, making    5 passes doing MaxLOS=2.
 Estimated number of processors is:   15
 Calling FoFCou, ICntrl=  3107 FMM=F I1Cent=   0 AccDes= 0.00D+00.
 CoulSu:  requested number of processors reduced to:  15 ShMem   1 Linda.
 Calling FoFCou, ICntrl=  3107 FMM=F I1Cent=   0 AccDes= 0.00D+00.
 CoulSu:  requested number of processors reduced to:  15 ShMem   1 Linda.
 Calling FoFCou, ICntrl=  3107 FMM=F I1Cent=   0 AccDes= 0.00D+00.
 CoulSu:  requested number of processors reduced to:  15 ShMem   1 Linda.
 Calling FoFCou, ICntrl=  3107 FMM=F I1Cent=   0 AccDes= 0.00D+00.
 CoulSu:  requested number of processors reduced to:  15 ShMem   1 Linda.
 Calling FoFCou, ICntrl=  3107 FMM=F I1Cent=   0 AccDes= 0.00D+00.
 CoulSu:  requested number of processors reduced to:  15 ShMem   1 Linda.
 FoFDir/FoFCou used for L=0 through L=2.
 End of G2Drv Frequency-dependent properties file   721 does not exist.
 End of G2Drv Frequency-dependent properties file   722 does not exist.
          IDoAtm=1111111111111
          Differentiating once with respect to electric field.
                with respect to dipole field.
          Differentiating once with respect to nuclear coordinates.
 PrRfSu:  requested number of processors reduced to:  16 ShMem   1 Linda.
 CalDSu:  requested number of processors reduced to:  22 ShMem   1 Linda.
 PrRfSu:  requested number of processors reduced to:  16 ShMem   1 Linda.
 CalDSu:  requested number of processors reduced to:  22 ShMem   1 Linda.
          There are    42 degrees of freedom in the 1st order CPHF.  IDoFFX=5.
     42 vectors produced by pass  0 Test12= 6.10D-15 2.38D-09 XBig12= 9.78D+01 7.44D+00.
 AX will form    21 AO Fock derivatives at one time.
 PrRfSu:  requested number of processors reduced to:  16 ShMem   1 Linda.
 CalDSu:  requested number of processors reduced to:  22 ShMem   1 Linda.
 PrRfSu:  requested number of processors reduced to:  16 ShMem   1 Linda.
 CalDSu:  requested number of processors reduced to:  22 ShMem   1 Linda.
     39 vectors produced by pass  1 Test12= 6.10D-15 2.38D-09 XBig12= 4.38D+01 1.29D+00.
 PrRfSu:  requested number of processors reduced to:  15 ShMem   1 Linda.
 CalDSu:  requested number of processors reduced to:  19 ShMem   1 Linda.
     39 vectors produced by pass  2 Test12= 6.10D-15 2.38D-09 XBig12= 4.73D-01 1.29D-01.
 PrRfSu:  requested number of processors reduced to:  15 ShMem   1 Linda.
 CalDSu:  requested number of processors reduced to:  19 ShMem   1 Linda.
     39 vectors produced by pass  3 Test12= 6.10D-15 2.38D-09 XBig12= 1.69D-03 7.07D-03.
 PrRfSu:  requested number of processors reduced to:  15 ShMem   1 Linda.
 CalDSu:  requested number of processors reduced to:  19 ShMem   1 Linda.
     39 vectors produced by pass  4 Test12= 6.10D-15 2.38D-09 XBig12= 2.58D-06 1.86D-04.
 PrRfSu:  requested number of processors reduced to:  15 ShMem   1 Linda.
 CalDSu:  requested number of processors reduced to:  19 ShMem   1 Linda.
     25 vectors produced by pass  5 Test12= 6.10D-15 2.38D-09 XBig12= 2.02D-09 7.75D-06.
 PrRfSu:  requested number of processors reduced to:  16 ShMem   1 Linda.
 CalDSu:  requested number of processors reduced to:  21 ShMem   1 Linda.
      3 vectors produced by pass  6 Test12= 6.10D-15 2.38D-09 XBig12= 1.60D-12 2.29D-07.
      3 vectors produced by pass  7 Test12= 6.10D-15 2.38D-09 XBig12= 9.15D-15 1.71D-08.
 Inverted reduced A of dimension   229 with in-core refinement.
 Isotropic polarizability for W=    0.000000       54.70 Bohr**3.
 End of Minotr Frequency-dependent properties file   721 does not exist.
 End of Minotr Frequency-dependent properties file   722 does not exist.
 PrsmSu:  requested number of processors reduced to:  10 ShMem   1 Linda.
 PrsmSu:  requested number of processors reduced to:  10 ShMem   1 Linda.
 Calling FoFJK, ICntrl=    100127 FMM=F ISym2X=0 I1Cent= 0 IOpClX= 0 NMat=1 NMatS=1 NMatT=0.
 CoulSu:  requested number of processors reduced to:  10 ShMem   1 Linda.
 CalDSu:  requested number of processors reduced to:  23 ShMem   1 Linda.
 -------------------------------------------------------------------
 Center     Atomic                   Forces (Hartrees/Bohr)
 Number     Number              X              Y              Z
 -------------------------------------------------------------------
      1        6           0.010961432    0.010004053   -0.008737546
      2        8          -0.014254805   -0.000269186    0.017264192
      3        1           0.005950704    0.006781344   -0.013539000
      4        1           0.002271993   -0.010240525    0.000449543
      5        1          -0.002333632   -0.006090595    0.003501831
      6        1          -0.007999669    0.000240852   -0.008646249
      7        1           0.003323015    0.004046463   -0.000203865
      8        1           0.011241945    0.002561756   -0.000976111
      9        1          -0.007825702    0.004177914    0.011319300
     10        1           0.000655796   -0.002848318    0.004601585
     11        6          -0.001466917    0.008033819    0.014767684
     12        6           0.009771981   -0.006348348   -0.008260871
     13        8          -0.010296140   -0.010049229   -0.011540492
 -------------------------------------------------------------------
 Cartesian Forces:  Max     0.017264192 RMS     0.008154503
 -----------------------------------------------------------------------------------------------
                       Internal Coordinate Forces (Hartree/Bohr or radian)
  Cent   Atom   N1       Length/X         N2         Alpha/Y        N3         Beta/Z          J
 -----------------------------------------------------------------------------------------------
      1  C 
      2  O        1   0.020890(     1)
      3  H        1   0.013048(     2)      2   0.028324(    13)
      4  H        1   0.008272(     3)      2  -0.005606(    14)      3   0.021667(    24)     0
      5  H        1   0.006855(     4)      2  -0.002788(    15)      4  -0.003723(    25)     0
      6  H        1   0.009385(     5)      2   0.016443(    16)      5  -0.018761(    26)     0
      7  H        1   0.004339(     6)      2  -0.002407(    17)      5   0.011365(    27)     0
      8  H        2   0.011217(     7)      1   0.005304(    18)      5   0.015066(    28)     0
      9  H        1   0.010769(     8)      2  -0.034945(    19)      8  -0.014947(    29)     0
     10  H        2   0.004987(     9)      1   0.003892(    20)      5  -0.023412(    30)     0
     11  C        1  -0.011443(    10)      2  -0.028829(    21)     10   0.024185(    31)     0
     12  C        1  -0.008251(    11)     11  -0.027152(    22)      2   0.011989(    32)     0
     13  O       11  -0.017843(    12)      1  -0.012064(    23)     12   0.003296(    33)     0
 -----------------------------------------------------------------------------------------------
 Internal  Forces:  Max     0.034945014 RMS     0.015965374

 GradGradGradGradGradGradGradGradGradGradGradGradGradGradGradGradGradGrad
 Berny optimization.
 Search for a saddle point.
 Step number   2 out of a maximum of   42
 All quantities printed in internal units (Hartrees-Bohrs-Radians)
 Swaping is turned off.
 Second derivative matrix not updated -- analytic derivatives used.
 ITU=  0  0
     Eigenvalues ---   -0.05877  -0.03378   0.00353   0.01298   0.01887
     Eigenvalues ---    0.03780   0.04673   0.05249   0.06914   0.07184
     Eigenvalues ---    0.08355   0.09472   0.10016   0.15157   0.16068
     Eigenvalues ---    0.22560   0.27072   0.38084   0.39064   0.40569
     Eigenvalues ---    0.48181   0.51267   0.55019   0.86872   1.29828
     Eigenvalues ---    1.68670   2.02548   3.46936   4.01325   5.45344
     Eigenvalues ---    8.30845  21.68288
 Eigenvectors required to have negative eigenvalues:
                          A11       A5        D3        A3        A4
   1                    0.44075  -0.34056   0.31220   0.29998   0.29183
                          A9        D6        D9        A8        A7
   1                   -0.27440  -0.21385  -0.20902  -0.20465   0.20392
 RFO step:  Lambda0=3.143280244D-03 Lambda=-3.48708339D-02.
 Linear search not attempted -- option 19 set.
 Maximum step size (   0.300) exceeded in Quadratic search.
    -- Step size scaled by   0.381
 Variable       Old X    -DE/DX   Delta X   Delta X   Delta X     New X
                                 (Linear)    (Quad)   (Total)
    B1        4.06846   0.01305   0.00000   0.02988   0.02988   4.09834
    B2        4.04588   0.00827   0.00000   0.01503   0.01503   4.06091
    B3        2.02752   0.00686   0.00000   0.00383   0.00383   2.03136
    B4        3.89645   0.00938   0.00000   0.00424   0.00424   3.90069
    B5        4.01973   0.00434   0.00000   0.00533   0.00533   4.02506
    B6        1.86654   0.01122   0.00000  -0.00346  -0.00346   1.86308
    B7        4.01234   0.01077   0.00000   0.02267   0.02267   4.03501
    B8        1.81795   0.00499   0.00000   0.00271   0.00271   1.82067
    B9        2.77731  -0.01144   0.00000  -0.00696  -0.00696   2.77035
   B10        2.79212  -0.00825   0.00000   0.00628   0.00628   2.79841
   B11        2.67846  -0.01784   0.00000  -0.01658  -0.01658   2.66188
    A1        2.23735   0.02832   0.00000   0.02643   0.02643   2.26378
    A2        1.68312  -0.00561   0.00000   0.04850   0.04850   1.73162
    A3        1.24415  -0.00279   0.00000  -0.02426  -0.02426   1.21989
    A4        2.14598   0.01644   0.00000   0.11076   0.11076   2.25673
    A5        1.75447  -0.00241   0.00000  -0.14038  -0.14038   1.61409
    A6        1.23820   0.00530   0.00000   0.00735   0.00735   1.24555
    A7        1.29419  -0.03495   0.00000   0.06972   0.06972   1.36391
    A8        2.17738   0.00389   0.00000   0.02552   0.02552   2.20291
    A9        1.81001  -0.02883   0.00000   0.04638   0.04638   1.85639
   A10        2.12379  -0.02715   0.00000  -0.00170  -0.00170   2.12210
   A11        1.58595  -0.01206   0.00000  -0.04979  -0.04979   1.53616
    D1        0.70641   0.02167   0.00000   0.03690   0.03690   0.74332
    D2        1.61265  -0.00372   0.00000  -0.01060  -0.01060   1.60205
    D3        1.65209  -0.01876   0.00000   0.14196   0.14196   1.79405
    D4        2.49945   0.01137   0.00000  -0.00125  -0.00125   2.49820
    D5        2.53727   0.01507   0.00000   0.01163   0.01163   2.54889
    D6       -1.98128  -0.01495   0.00000  -0.12554  -0.12554  -2.10682
    D7        0.79663  -0.02341   0.00000   0.00776   0.00776   0.80440
    D8       -1.29197   0.02418   0.00000   0.01618   0.01618  -1.27579
    D9        1.91056   0.01199   0.00000   0.02705   0.02705   1.93762
   D10        1.23034   0.00330   0.00000   0.05948   0.05948   1.28982
         Item               Value     Threshold  Converged?
 Maximum Force            0.034945     0.000450     NO 
 RMS     Force            0.015787     0.000300     NO 
 Maximum Displacement     0.141956     0.001800     NO 
 RMS     Displacement     0.053033     0.001200     NO 
 Predicted change in Energy=-3.163469D-03
 GradGradGradGradGradGradGradGradGradGradGradGradGradGradGradGradGradGrad

 ---------------------------------------------------------------------------------------------------
                            Z-MATRIX (ANGSTROMS AND DEGREES)
   CD    Cent   Atom    N1       Length/X        N2       Alpha/Y        N3        Beta/Z          J
 ---------------------------------------------------------------------------------------------------
      1      1  C 
      2      2  O        1   2.285847(     1)
      3      3  H        1   2.168750(     2)      2  129.705(    13)
      4      4  H        1   2.148942(     3)      2   99.215(    14)      3   42.589(    24)      0
      5      5  H        1   1.074947(     4)      2   69.894(    15)      4   91.791(    25)      0
      6      6  H        1   2.064159(     5)      2  129.301(    16)      5  102.792(    26)      0
      7      7  H        1   2.129969(     6)      2   92.481(    17)      5  143.136(    27)      0
      8      8  H        2   0.985899(     7)      1   71.365(    18)      5  146.041(    28)      0
      9      9  H        1   2.135234(     8)      2   78.146(    19)      8 -120.712(    29)      0
     10     10  H        2   0.963455(     9)      1  126.217(    20)      5   46.089(    30)      0
     11     11  C        1   1.466007(    10)      2  106.363(    21)     10  -73.097(    31)      0
     12     12  C        1   1.480853(    11)     11  121.587(    22)      2  111.017(    32)      0
     13     13  O       11   1.408605(    12)      1   88.016(    23)     12   73.901(    33)      0
 ---------------------------------------------------------------------------------------------------
                         Z-Matrix orientation:                         
 ---------------------------------------------------------------------
 Center     Atomic      Atomic             Coordinates (Angstroms)
 Number     Number       Type             X           Y           Z
 ---------------------------------------------------------------------
      1          6           0        0.000000    0.000000    0.000000
      2          8           0        0.000000    0.000000    2.285847
      3          1           0        1.668520    0.000000   -1.385466
      4          1           0        1.561694   -1.435496   -0.344116
      5          1           0       -0.706011   -0.721471    0.369513
      6          1           0       -0.865951    1.342202   -1.307430
      7          1           0        0.278337    2.109691   -0.092190
      8          1           0        0.914930    0.188829    1.970815
      9          1           0       -1.408366    1.543809    0.438612
     10          1           0        0.023182   -0.776953    2.855102
     11          6           0        1.357458   -0.368650   -0.413013
     12          6           0       -0.532623    1.364833   -0.215569
     13          8           0        1.840130    0.380522    0.677829
 ---------------------------------------------------------------------
                    Distance matrix (angstroms):
                    1          2          3          4          5
     1  C    0.000000
     2  O    2.285847   0.000000
     3  H    2.168750   4.032679   0.000000
     4  H    2.148942   3.378792   1.776646   0.000000
     5  H    1.074947   2.165942   3.039551   2.482253   0.000000
     6  H    2.064159   3.932304   2.868996   3.812747   2.663919
     7  H    2.129969   3.191133   2.838303   3.778733   3.032753
     8  H    2.181023   0.985899   3.445022   2.900972   2.453622
     9  H    2.135234   2.789107   3.895874   4.279040   2.372672
    10  H    2.959020   0.963455   4.614457   3.610497   2.590937
    11  C    1.466007   3.043426   1.085508   1.088402   2.234890
    12  C    1.480853   2.898885   2.841911   3.499218   2.173717
    13  O    1.997580   2.473175   2.105098   2.102337   2.791466
                    6          7          8          9         10
     6  H    0.000000
     7  H    1.837184   0.000000
     8  H    3.904958   2.889801   0.000000
     9  H    1.839436   1.856595   3.095371   0.000000
    10  H    4.754793   4.133322   1.584270   3.643446   0.000000
    11  C    2.944580   2.722059   2.487820   3.468797   3.553531
    12  C    1.141833   1.108013   2.873789   1.107661   3.784863
    13  O    3.491269   2.454007   1.601422   3.458784   3.062934
                   11         12         13
    11  C    0.000000
    12  C    2.572227   0.000000
    13  O    1.408605   2.719739   0.000000
 Symmetry turned off by external request.
 Stoichiometry    C3H8O2
 Framework group  C1[X(C3H8O2)]
 Deg. of freedom    33
 Full point group                 C1      NOp   1
 Rotational constants (GHZ):      5.2588147      4.5347476      3.0655895
 Standard basis: 6-31++G(d,p) (6D, 7F)
 The following finite field(s) will be applied:
 An electric field of              0.0000  0.0000 -0.0025
 Integral buffers will be    131072 words long.
 Raffenetti 2 integral format.
 Two-electron integral symmetry is turned off.
   143 basis functions,   224 primitive gaussians,   143 cartesian basis functions
    21 alpha electrons       21 beta electrons
       nuclear repulsion energy       190.6123311040 Hartrees.
 NAtoms=   13 NActive=   13 NUniq=   13 SFac= 1.00D+00 NAtFMM=   50 NAOKFM=F Big=F
 One-electron integrals computed using PRISM.
 PrsmSu:  requested number of processors reduced to:  10 ShMem   1 Linda.
 NBasis=   143 RedAO= T  NBF=   143
 NBsUse=   143 1.00D-06 NBFU=   143
 The nuclear repulsion energy is now       190.5063044402 hartrees.
 Initial guess read from the read-write file.
 B after Tr=     0.000000    0.000000    0.000000
         Rot=    1.000000    0.000000    0.000000    0.000000 Ang=   0.00 deg.
 Harris functional with IExCor=  402 diagonalized for initial guess.
 ExpMin= 3.60D-02 ExpMax= 5.48D+03 ExpMxC= 8.25D+02 IAcc=3 IRadAn=         0 AccDes= 0.00D+00
 HarFok:  IExCor=  402 AccDes= 0.00D+00 IRadAn=         0 IDoV= 1
 ScaDFX=  1.000000  1.000000  1.000000  1.000000
 FoFCou: FMM=F IPFlag=           0 FMFlag=      100000 FMFlg1=           0
         NFxFlg=           0 DoJE=T BraDBF=F KetDBF=T FulRan=T
         Omega=  0.000000  0.000000  1.000000  0.000000  0.000000 ICntrl=     500 IOpCl=  0
         NMat0=    1 NMatS0=    1 NMatT0=    0 NMatD0=    1 NMtDS0=    0 NMtDT0=    0
         I1Cent=           4 NGrid=           0.
 Symmetry not used in FoFCou.
 Requested convergence on RMS density matrix=1.00D-08 within 128 cycles.
 Requested convergence on MAX density matrix=1.00D-06.
 Requested convergence on             energy=1.00D-06.
 No special actions if energy rises.
 SCF Done:  E(RB3LYP) =  -269.491269463     A.U. after   13 cycles
             Convg  =    0.6147D-08             -V/T =  2.0092
 Range of M.O.s used for correlation:     1   143
 NBasis=   143 NAE=    21 NBE=    21 NFC=     0 NFV=     0
 NROrb=    143 NOA=    21 NOB=    21 NVA=   122 NVB=   122

 **** Warning!!: The largest alpha MO coefficient is  0.41683065D+02

 PrsmSu:  requested number of processors reduced to:  10 ShMem   1 Linda.
 PrsmSu:  requested number of processors reduced to:  17 ShMem   1 Linda.
 Symmetrizing basis deriv contribution to polar:
 IMax=3 JMax=2 DiffMx= 0.00D+00
 G2DrvN: will do     3 centers at a time, making    5 passes doing MaxLOS=2.
 Estimated number of processors is:   15
 Calling FoFCou, ICntrl=  3107 FMM=F I1Cent=   0 AccDes= 0.00D+00.
 CoulSu:  requested number of processors reduced to:  15 ShMem   1 Linda.
 Calling FoFCou, ICntrl=  3107 FMM=F I1Cent=   0 AccDes= 0.00D+00.
 CoulSu:  requested number of processors reduced to:  15 ShMem   1 Linda.
 Calling FoFCou, ICntrl=  3107 FMM=F I1Cent=   0 AccDes= 0.00D+00.
 CoulSu:  requested number of processors reduced to:  15 ShMem   1 Linda.
 Calling FoFCou, ICntrl=  3107 FMM=F I1Cent=   0 AccDes= 0.00D+00.
 CoulSu:  requested number of processors reduced to:  15 ShMem   1 Linda.
 Calling FoFCou, ICntrl=  3107 FMM=F I1Cent=   0 AccDes= 0.00D+00.
 CoulSu:  requested number of processors reduced to:  15 ShMem   1 Linda.
 FoFDir/FoFCou used for L=0 through L=2.
 End of G2Drv Frequency-dependent properties file   721 does not exist.
 End of G2Drv Frequency-dependent properties file   722 does not exist.
          IDoAtm=1111111111111
          Differentiating once with respect to electric field.
                with respect to dipole field.
          Differentiating once with respect to nuclear coordinates.
 PrRfSu:  requested number of processors reduced to:  16 ShMem   1 Linda.
 CalDSu:  requested number of processors reduced to:  22 ShMem   1 Linda.
 PrRfSu:  requested number of processors reduced to:  16 ShMem   1 Linda.
 CalDSu:  requested number of processors reduced to:  22 ShMem   1 Linda.
          There are    42 degrees of freedom in the 1st order CPHF.  IDoFFX=5.
     42 vectors produced by pass  0 Test12= 6.10D-15 2.38D-09 XBig12= 8.55D+01 5.90D+00.
 AX will form    21 AO Fock derivatives at one time.
 PrRfSu:  requested number of processors reduced to:  16 ShMem   1 Linda.
 CalDSu:  requested number of processors reduced to:  22 ShMem   1 Linda.
 PrRfSu:  requested number of processors reduced to:  16 ShMem   1 Linda.
 CalDSu:  requested number of processors reduced to:  22 ShMem   1 Linda.
     39 vectors produced by pass  1 Test12= 6.10D-15 2.38D-09 XBig12= 3.94D+01 1.08D+00.
 PrRfSu:  requested number of processors reduced to:  15 ShMem   1 Linda.
 CalDSu:  requested number of processors reduced to:  19 ShMem   1 Linda.
     39 vectors produced by pass  2 Test12= 6.10D-15 2.38D-09 XBig12= 4.30D-01 1.23D-01.
 PrRfSu:  requested number of processors reduced to:  15 ShMem   1 Linda.
 CalDSu:  requested number of processors reduced to:  19 ShMem   1 Linda.
     39 vectors produced by pass  3 Test12= 6.10D-15 2.38D-09 XBig12= 1.86D-03 6.60D-03.
 PrRfSu:  requested number of processors reduced to:  15 ShMem   1 Linda.
 CalDSu:  requested number of processors reduced to:  19 ShMem   1 Linda.
     39 vectors produced by pass  4 Test12= 6.10D-15 2.38D-09 XBig12= 3.07D-06 1.71D-04.
 PrRfSu:  requested number of processors reduced to:  15 ShMem   1 Linda.
 CalDSu:  requested number of processors reduced to:  19 ShMem   1 Linda.
     26 vectors produced by pass  5 Test12= 6.10D-15 2.38D-09 XBig12= 2.58D-09 6.01D-06.
 PrRfSu:  requested number of processors reduced to:  16 ShMem   1 Linda.
 CalDSu:  requested number of processors reduced to:  21 ShMem   1 Linda.
      3 vectors produced by pass  6 Test12= 6.10D-15 2.38D-09 XBig12= 2.03D-12 1.73D-07.
      2 vectors produced by pass  7 Test12= 6.10D-15 2.38D-09 XBig12= 9.74D-15 2.02D-08.
      1 vectors produced by pass  8 Test12= 6.10D-15 2.38D-09 XBig12= 2.40D-16 3.33D-09.
 Inverted reduced A of dimension   230 with in-core refinement.
 Isotropic polarizability for W=    0.000000       54.49 Bohr**3.
 End of Minotr Frequency-dependent properties file   721 does not exist.
 End of Minotr Frequency-dependent properties file   722 does not exist.
 PrsmSu:  requested number of processors reduced to:  10 ShMem   1 Linda.
 PrsmSu:  requested number of processors reduced to:  10 ShMem   1 Linda.
 Calling FoFJK, ICntrl=    100127 FMM=F ISym2X=0 I1Cent= 0 IOpClX= 0 NMat=1 NMatS=1 NMatT=0.
 CoulSu:  requested number of processors reduced to:  10 ShMem   1 Linda.
 CalDSu:  requested number of processors reduced to:  23 ShMem   1 Linda.
 -------------------------------------------------------------------
 Center     Atomic                   Forces (Hartrees/Bohr)
 Number     Number              X              Y              Z
 -------------------------------------------------------------------
      1        6           0.012424884    0.008612057   -0.010682435
      2        8          -0.013219532    0.000516303    0.022920554
      3        1           0.004132968    0.004597001   -0.009408683
      4        1           0.001384517   -0.007776295   -0.000618848
      5        1           0.001095752   -0.005853685    0.003267506
      6        1           0.002503904    0.006660651    0.019297540
      7        1          -0.012390674   -0.004517403   -0.002131258
      8        1           0.007075559   -0.001040068   -0.000070142
      9        1           0.010327050    0.003664698   -0.007203061
     10        1           0.000975098   -0.001034209    0.003891766
     11        6          -0.000830653    0.004348501    0.005611221
     12        6          -0.005410810   -0.001480363   -0.017753651
     13        8          -0.008068063   -0.006697186   -0.007120509
 -------------------------------------------------------------------
 Cartesian Forces:  Max     0.022920554 RMS     0.008287871
 -----------------------------------------------------------------------------------------------
                       Internal Coordinate Forces (Hartree/Bohr or radian)
  Cent   Atom   N1       Length/X         N2         Alpha/Y        N3         Beta/Z          J
 -----------------------------------------------------------------------------------------------
      1  C 
      2  O        1   0.026742(     1)
      3  H        1   0.009190(     2)      2   0.018845(    13)
      4  H        1   0.006300(     3)      2  -0.001604(    14)      3   0.014401(    24)     0
      5  H        1   0.004332(     4)      2  -0.003847(    15)      4  -0.004792(    25)     0
      6  H        1  -0.008942(     5)      2  -0.068723(    16)      5   0.017250(    26)     0
      7  H        1  -0.006001(     6)      2   0.009633(    17)      5  -0.047022(    27)     0
      8  H        2   0.006389(     7)      1   0.003876(    18)      5  -0.044204(    28)     0
      9  H        1  -0.005642(     8)      2   0.024920(    19)      8   0.039881(    29)     0
     10  H        2   0.003157(     9)      1   0.004573(    20)      5   0.009921(    30)     0
     11  C        1  -0.007224(    10)      2  -0.025848(    21)     10  -0.008535(    31)     0
     12  C        1   0.003166(    11)     11  -0.006643(    22)      2   0.038869(    32)     0
     13  O       11  -0.011841(    12)      1  -0.011161(    23)     12   0.004501(    33)     0
 -----------------------------------------------------------------------------------------------
 Internal  Forces:  Max     0.068723298 RMS     0.021968925

 GradGradGradGradGradGradGradGradGradGradGradGradGradGradGradGradGradGrad
 Berny optimization.
 Search for a saddle point.
 Step number   3 out of a maximum of   42
 All quantities printed in internal units (Hartrees-Bohrs-Radians)
 Swaping is turned off.
 Second derivative matrix not updated -- analytic derivatives used.
 ITU=  0  0  0
     Eigenvalues ---   -0.06405  -0.00395   0.00829   0.01387   0.03851
     Eigenvalues ---    0.04445   0.05051   0.06492   0.07007   0.07626
     Eigenvalues ---    0.09111   0.10130   0.12227   0.14470   0.16604
     Eigenvalues ---    0.23195   0.28845   0.38318   0.38686   0.41935
     Eigenvalues ---    0.49194   0.52650   0.54474   0.84811   1.28521
     Eigenvalues ---    1.63208   1.89907   3.19983   3.74261   5.36742
     Eigenvalues ---    7.12092  20.76114
 Eigenvectors required to have negative eigenvalues:
                          A11       A9        A3        D9        D10
   1                    0.58012  -0.36166   0.33313  -0.30197  -0.28425
                          A8        A1        A2        B1        B4
   1                   -0.23546  -0.22299  -0.20250  -0.16516  -0.12610
 RFO step:  Lambda0=5.829627134D-03 Lambda=-6.44598992D-03.
 Linear search not attempted -- option 19 set.
 Maximum step size (   0.300) exceeded in Quadratic search.
    -- Step size scaled by   0.371
 Variable       Old X    -DE/DX   Delta X   Delta X   Delta X     New X
                                 (Linear)    (Quad)   (Total)
    B1        4.09834   0.00919   0.00000  -0.01783  -0.01783   4.08052
    B2        4.06091   0.00630   0.00000   0.00390   0.00390   4.06481
    B3        2.03136   0.00433   0.00000   0.01045   0.01045   2.04181
    B4        3.90069  -0.00894   0.00000  -0.00269  -0.00269   3.89800
    B5        4.02506  -0.00600   0.00000  -0.00162  -0.00162   4.02344
    B6        1.86308   0.00639   0.00000   0.02006   0.02006   1.88314
    B7        4.03501  -0.00564   0.00000   0.00181   0.00181   4.03682
    B8        1.82067   0.00316   0.00000   0.00339   0.00339   1.82406
    B9        2.77035  -0.00722   0.00000   0.01135   0.01135   2.78170
   B10        2.79841   0.00317   0.00000  -0.00533  -0.00533   2.79308
   B11        2.66188  -0.01184   0.00000  -0.01539  -0.01539   2.64649
    A1        2.26378   0.01885   0.00000  -0.00790  -0.00790   2.25587
    A2        1.73162  -0.00160   0.00000   0.06938   0.06938   1.80101
    A3        1.21989  -0.00385   0.00000   0.08603   0.08603   1.30592
    A4        2.25673  -0.06872   0.00000  -0.10945  -0.10945   2.14728
    A5        1.61409   0.00963   0.00000  -0.08802  -0.08802   1.52608
    A6        1.24555   0.00388   0.00000  -0.00857  -0.00857   1.23698
    A7        1.36391   0.02492   0.00000  -0.09501  -0.09501   1.26890
    A8        2.20291   0.00457   0.00000  -0.05376  -0.05376   2.14915
    A9        1.85639  -0.02585   0.00000   0.00363   0.00363   1.86002
   A10        2.12210  -0.00664   0.00000   0.00813   0.00813   2.13023
   A11        1.53616  -0.01116   0.00000   0.07764   0.07764   1.61380
    D1        0.74332   0.01440   0.00000   0.08170   0.08170   0.82502
    D2        1.60205  -0.00479   0.00000  -0.02519  -0.02519   1.57686
    D3        1.79405   0.01725   0.00000   0.05510   0.05510   1.84915
    D4        2.49820  -0.04702   0.00000   0.02900   0.02900   2.52720
    D5        2.54889  -0.04420   0.00000  -0.07107  -0.07107   2.47782
    D6       -2.10682   0.03988   0.00000  -0.03313  -0.03313  -2.13995
    D7        0.80440   0.00992   0.00000  -0.05236  -0.05236   0.75204
    D8       -1.27579  -0.00853   0.00000  -0.05397  -0.05397  -1.32976
    D9        1.93762   0.03887   0.00000  -0.12420  -0.12420   1.81341
   D10        1.28982   0.00450   0.00000  -0.01481  -0.01481   1.27501
         Item               Value     Threshold  Converged?
 Maximum Force            0.068723     0.000450     NO 
 RMS     Force            0.021803     0.000300     NO 
 Maximum Displacement     0.124203     0.001800     NO 
 RMS     Displacement     0.053033     0.001200     NO 
 Predicted change in Energy=-4.607471D-04
 GradGradGradGradGradGradGradGradGradGradGradGradGradGradGradGradGradGrad

 ---------------------------------------------------------------------------------------------------
                            Z-MATRIX (ANGSTROMS AND DEGREES)
   CD    Cent   Atom    N1       Length/X        N2       Alpha/Y        N3        Beta/Z          J
 ---------------------------------------------------------------------------------------------------
      1      1  C 
      2      2  O        1   2.285847(     1)
      3      3  H        1   2.159317(     2)      2  129.252(    13)
      4      4  H        1   2.151003(     3)      2  103.190(    14)      3   47.270(    24)      0
      5      5  H        1   1.080477(     4)      2   74.824(    15)      4   90.347(    25)      0
      6      6  H        1   2.062734(     5)      2  123.030(    16)      5  105.949(    26)      0
      7      7  H        1   2.129113(     6)      2   87.438(    17)      5  144.798(    27)      0
      8      8  H        2   0.996513(     7)      1   70.874(    18)      5  141.969(    28)      0
      9      9  H        1   2.136194(     8)      2   72.702(    19)      8 -122.610(    29)      0
     10     10  H        2   0.965248(     9)      1  123.137(    20)      5   43.089(    30)      0
     11     11  C        1   1.472012(    10)      2  106.571(    21)     10  -76.190(    31)      0
     12     12  C        1   1.478032(    11)     11  122.053(    22)      2  103.901(    32)      0
     13     13  O       11   1.400460(    12)      1   92.464(    23)     12   73.053(    33)      0
 ---------------------------------------------------------------------------------------------------
                         Z-Matrix orientation:                         
 ---------------------------------------------------------------------
 Center     Atomic      Atomic             Coordinates (Angstroms)
 Number     Number       Type             X           Y           Z
 ---------------------------------------------------------------------
      1          6           0        0.000000    0.000000    0.000000
      2          8           0        0.000000    0.000000    2.285847
      3          1           0        1.672110    0.000000   -1.366271
      4          1           0        1.421042   -1.538360   -0.490820
      5          1           0       -0.770272   -0.702926    0.282857
      6          1           0       -0.769850    1.548557   -1.124355
      7          1           0        0.457287    2.077246    0.095182
      8          1           0        0.938791    0.071436    1.959341
      9          1           0       -1.226354    1.629707    0.635166
     10          1           0       -0.063820   -0.805741    2.813496
     11          6           0        1.339217   -0.443921   -0.419824
     12          6           0       -0.412495    1.417827   -0.064743
     13          8           0        1.944927    0.111134    0.714335
 ---------------------------------------------------------------------
                    Distance matrix (angstroms):
                    1          2          3          4          5
     1  C    0.000000
     2  O    2.285847   0.000000
     3  H    2.159317   4.016705   0.000000
     4  H    2.151003   3.477900   1.787736   0.000000
     5  H    1.080477   2.258183   3.029680   2.469490   0.000000
     6  H    2.062734   3.823634   2.901676   3.838024   2.655075
     7  H    2.129113   3.053371   2.815420   3.787456   3.044910
     8  H    2.173809   0.996513   3.406252   2.971076   2.516173
     9  H    2.136194   2.623859   3.881081   4.279391   2.402770
    10  H    2.927294   0.965248   4.597078   3.695950   2.629406
    11  C    1.472012   3.051430   1.097108   1.099787   2.238479
    12  C    1.478032   2.775907   2.837215   3.504631   2.178628
    13  O    2.074937   2.502946   2.101357   2.108953   2.867258
                    6          7          8          9         10
     6  H    0.000000
     7  H    1.809046   0.000000
     8  H    3.822372   2.780325   0.000000
     9  H    1.819587   1.823875   2.978170   0.000000
    10  H    4.641968   3.996548   1.582482   3.468142   0.000000
    11  C    2.985715   2.720168   2.467055   3.463393   3.543132
    12  C    1.125865   1.103146   2.781305   1.094135   3.653777
    13  O    3.580081   2.542050   1.601226   3.517009   3.046670
                   11         12         13
    11  C    0.000000
    12  C    2.580830   0.000000
    13  O    1.400460   2.805681   0.000000
 Symmetry turned off by external request.
 Stoichiometry    C3H8O2
 Framework group  C1[X(C3H8O2)]
 Deg. of freedom    33
 Full point group                 C1      NOp   1
 Rotational constants (GHZ):      5.1936761      4.5838907      3.0431634
 Standard basis: 6-31++G(d,p) (6D, 7F)
 The following finite field(s) will be applied:
 An electric field of              0.0000  0.0000 -0.0025
 Integral buffers will be    131072 words long.
 Raffenetti 2 integral format.
 Two-electron integral symmetry is turned off.
   143 basis functions,   224 primitive gaussians,   143 cartesian basis functions
    21 alpha electrons       21 beta electrons
       nuclear repulsion energy       190.1053145061 Hartrees.
 NAtoms=   13 NActive=   13 NUniq=   13 SFac= 1.00D+00 NAtFMM=   50 NAOKFM=F Big=F
 One-electron integrals computed using PRISM.
 PrsmSu:  requested number of processors reduced to:  10 ShMem   1 Linda.
 NBasis=   143 RedAO= T  NBF=   143
 NBsUse=   143 1.00D-06 NBFU=   143
 The nuclear repulsion energy is now       189.9924097849 hartrees.
 Initial guess read from the read-write file.
 B after Tr=     0.000000    0.000000    0.000000
         Rot=    1.000000    0.000000    0.000000    0.000000 Ang=   0.00 deg.
 Harris functional with IExCor=  402 diagonalized for initial guess.
 ExpMin= 3.60D-02 ExpMax= 5.48D+03 ExpMxC= 8.25D+02 IAcc=3 IRadAn=         0 AccDes= 0.00D+00
 HarFok:  IExCor=  402 AccDes= 0.00D+00 IRadAn=         0 IDoV= 1
 ScaDFX=  1.000000  1.000000  1.000000  1.000000
 FoFCou: FMM=F IPFlag=           0 FMFlag=      100000 FMFlg1=           0
         NFxFlg=           0 DoJE=T BraDBF=F KetDBF=T FulRan=T
         Omega=  0.000000  0.000000  1.000000  0.000000  0.000000 ICntrl=     500 IOpCl=  0
         NMat0=    1 NMatS0=    1 NMatT0=    0 NMatD0=    1 NMtDS0=    0 NMtDT0=    0
         I1Cent=           4 NGrid=           0.
 Symmetry not used in FoFCou.
 Requested convergence on RMS density matrix=1.00D-08 within 128 cycles.
 Requested convergence on MAX density matrix=1.00D-06.
[...]
     10  H        2   0.000000(     9)      1   0.000000(    20)      5   0.000013(    30)     0
     11  C        1   0.000000(    10)      2   0.000002(    21)     10  -0.000013(    31)     0
     12  C        1   0.000004(    11)     11   0.000013(    22)      2   0.000003(    32)     0
     13  O       11   0.000000(    12)      1   0.000000(    23)     12   0.000000(    33)     0
 -----------------------------------------------------------------------------------------------
 Internal  Forces:  Max     0.003345520 RMS     0.000582468

 GradGradGradGradGradGradGradGradGradGradGradGradGradGradGradGradGradGrad
 Berny optimization.
 Search for a saddle point.
 Step number   1 out of a maximum of    2
 All quantities printed in internal units (Hartrees-Bohrs-Radians)
 Swaping is turned off.
 Second derivative matrix not updated -- analytic derivatives used.
 ITU=  0
     Eigenvalues ---   -0.03593   0.00715   0.01585   0.02318   0.03047
     Eigenvalues ---    0.04326   0.05116   0.05822   0.06493   0.06653
     Eigenvalues ---    0.07023   0.09474   0.10740   0.13284   0.16636
     Eigenvalues ---    0.23824   0.30421   0.35242   0.35972   0.42327
     Eigenvalues ---    0.50724   0.52738   0.55459   0.88423   1.32443
     Eigenvalues ---    1.55682   2.04902   3.16674   4.14028   4.85888
     Eigenvalues ---    7.36388  20.71929
 Eigenvectors required to have negative eigenvalues:
                          A3        A11       A9        B6        A1
   1                    0.46319   0.41607  -0.36281   0.30843  -0.25892
                          D9        A8        D10       A2        B1
   1                   -0.24804  -0.24602  -0.24185  -0.22500  -0.19527
 Angle between quadratic step and forces=  82.58 degrees.
 Linear search not attempted -- option 19 set.
 Variable       Old X    -DE/DX   Delta X   Delta X   Delta X     New X
                                 (Linear)    (Quad)   (Total)
    B1        4.03227   0.00000   0.00000  -0.00001  -0.00001   4.03226
    B2        4.07677   0.00000   0.00000   0.00000   0.00000   4.07676
    B3        2.05520   0.00000   0.00000   0.00000   0.00000   2.05520
    B4        3.94872  -0.00001   0.00000   0.00002   0.00002   3.94875
    B5        4.04132   0.00000   0.00000   0.00000   0.00000   4.04132
    B6        1.97209   0.00000   0.00000   0.00001   0.00001   1.97210
    B7        4.01610  -0.00001   0.00000  -0.00002  -0.00002   4.01608
    B8        1.82923   0.00000   0.00000   0.00000   0.00000   1.82923
    B9        2.80975   0.00000   0.00000   0.00000   0.00000   2.80975
   B10        2.78932   0.00000   0.00000   0.00000   0.00000   2.78932
   B11        2.61314   0.00000   0.00000   0.00000   0.00000   2.61314
    A1        2.15334   0.00000   0.00000  -0.00001  -0.00001   2.15333
    A2        1.61638   0.00000   0.00000  -0.00002  -0.00002   1.61636
    A3        1.39595   0.00000   0.00000   0.00000   0.00000   1.39596
    A4        2.08499  -0.00002   0.00000  -0.00008  -0.00008   2.08491
    A5        1.77757   0.00000   0.00000   0.00008   0.00008   1.77765
    A6        1.24970   0.00000   0.00000   0.00000   0.00000   1.24970
    A7        1.24687   0.00003   0.00000  -0.00003  -0.00003   1.24684
    A8        2.13195   0.00000   0.00000   0.00001   0.00001   2.13196
    A9        1.68472   0.00000   0.00000  -0.00002  -0.00002   1.68470
   A10        2.11679   0.00001   0.00000   0.00000   0.00000   2.11679
   A11        1.73724   0.00000   0.00000   0.00001   0.00001   1.73725
    D1        0.71641   0.00000   0.00000  -0.00001  -0.00001   0.71640
    D2        1.62580   0.00000   0.00000   0.00000   0.00000   1.62580
    D3        1.62133   0.00002   0.00000  -0.00005  -0.00005   1.62128
    D4        2.51447  -0.00002   0.00000  -0.00001  -0.00001   2.51446
    D5        2.55600  -0.00002   0.00000   0.00001   0.00001   2.55601
    D6       -1.90415   0.00001   0.00000   0.00011   0.00011  -1.90405
    D7        0.80508   0.00001   0.00000   0.00001   0.00001   0.80510
    D8       -1.31328  -0.00001   0.00000   0.00001   0.00001  -1.31327
    D9        1.80805   0.00000   0.00000  -0.00001  -0.00001   1.80804
   D10        1.13906   0.00000   0.00000  -0.00003  -0.00003   1.13903
         Item               Value     Threshold  Converged?
 Maximum Force            0.000027     0.000450     YES
 RMS     Force            0.000010     0.000300     YES
 Maximum Displacement     0.000107     0.001800     YES
 RMS     Displacement     0.000031     0.001200     YES
 Predicted change in Energy=-6.611053D-10
 Optimization completed.
    -- Stationary point found.
                       ----------------------------
                       !   Optimized Parameters   !
                       ! (Angstroms and Degrees)  !
 ----------------------                            ----------------------
 !      Name          Value   Derivative information (Atomic Units)     !
 ------------------------------------------------------------------------
 !       B1          2.1338   -DE/DX =    0.0                           !
 !       B2          2.1573   -DE/DX =    0.0                           !
 !       B3          1.0876   -DE/DX =    0.0                           !
 !       B4          2.0896   -DE/DX =    0.0                           !
 !       B5          2.1386   -DE/DX =    0.0                           !
 !       B6          1.0436   -DE/DX =    0.0                           !
 !       B7          2.1252   -DE/DX =    0.0                           !
 !       B8          0.968    -DE/DX =    0.0                           !
 !       B9          1.4869   -DE/DX =    0.0                           !
 !       B10         1.476    -DE/DX =    0.0                           !
 !       B11         1.3828   -DE/DX =    0.0                           !
 !       A1        123.3775   -DE/DX =    0.0                           !
 !       A2         92.612    -DE/DX =    0.0                           !
 !       A3         79.9822   -DE/DX =    0.0                           !
 !       A4        119.4611   -DE/DX =    0.0                           !
 !       A5        101.8472   -DE/DX =    0.0                           !
 !       A6         71.6025   -DE/DX =    0.0                           !
 !       A7         71.4406   -DE/DX =    0.0                           !
 !       A8        122.1518   -DE/DX =    0.0                           !
 !       A9         96.5271   -DE/DX =    0.0                           !
 !       A10       121.2833   -DE/DX =    0.0                           !
 !       A11        99.5364   -DE/DX =    0.0                           !
 !       D1         41.0476   -DE/DX =    0.0                           !
 !       D2         93.1515   -DE/DX =    0.0                           !
 !       D3         92.8952   -DE/DX =    0.0                           !
 !       D4        144.0684   -DE/DX =    0.0                           !
 !       D5        146.4479   -DE/DX =    0.0                           !
 !       D6       -109.1      -DE/DX =    0.0                           !
 !       D7         46.1279   -DE/DX =    0.0                           !
 !       D8        -75.2454   -DE/DX =    0.0                           !
 !       D9        103.5934   -DE/DX =    0.0                           !
 !       D10        65.2632   -DE/DX =    0.0                           !
 ------------------------------------------------------------------------
 GradGradGradGradGradGradGradGradGradGradGradGradGradGradGradGradGradGrad

 1\1\GINC-C03N03\Freq\RB3LYP\6-31++G(d,p)\C3H8O2\ROOT\06-Mar-2018\1\\#N
  Geom=AllCheck Guess=TCheck SCRF=Check GenChk RB3LYP/6-31++G(d,p) Freq
 \\OH-BACK-MID\\0,1\C\O,1,2.28584674\H,1,B1,2,A1\H,1,B2,2,A2,3,D1,0\H,1
 ,B3,2,A3,4,D2,0\H,1,B4,2,A4,5,D3,0\H,1,B5,2,A5,5,D4,0\H,2,B6,1,A6,5,D5
 ,0\H,1,B7,2,A7,8,D6,0\H,2,B8,1,A8,5,D7,0\C,1,B9,2,A9,10,D8,0\C,1,B10,1
 1,A10,2,D9,0\O,11,B11,1,A11,12,D10,0\\B1=2.1337843\B2=2.15733164\B3=1.
 08756426\B4=2.08957467\B5=2.13857197\B6=1.043587\B7=2.12522731\B8=0.96
 798586\B9=1.48685309\B10=1.47604254\B11=1.38281371\A1=123.37749028\A2=
 92.61197687\A3=79.98224975\A4=119.4611452\A5=101.84723405\A6=71.602467
 83\A7=71.44064837\A8=122.1518076\A9=96.52709319\A10=121.28332499\A11=9
 9.53639929\D1=41.04755025\D2=93.15154769\D3=92.89517956\D4=144.0684095
 1\D5=146.44791787\D6=-109.09999757\D7=46.12785505\D8=-75.24541633\D9=1
 03.59339117\D10=65.26315735\\Version=EM64L-G09RevB.01\HF=-269.491677\R
 MSD=2.144e-09\RMSF=7.830e-04\ZeroPoint=0.1063956\Thermal=0.1127649\Dip
 ole=-1.2628437,-0.7172216,-0.7218259\DipoleDeriv=0.801742,-0.0932749,-
 0.0257914,-0.0981569,0.4733686,-0.2649147,-0.1640075,-0.1428853,0.7433
 664,-0.6221794,-0.1182252,0.3846403,-0.111006,-0.4340279,0.1354132,0.3
 316246,0.0202514,-1.1204631,0.0772523,0.0151888,0.0760882,-0.0216592,0
 .0223854,0.0728292,0.1114485,0.027084,-0.2501185,0.0496072,0.0062738,0
 .0011238,0.1030359,-0.2985186,-0.0603122,0.016508,-0.0056233,0.0171003
 ,0.0153308,-0.0431854,-0.0214706,-0.0189299,-0.0265393,0.0094624,0.094
 2618,0.0449694,0.0032272,0.0402598,-0.0378521,-0.0790215,0.0195121,0.0
 403847,0.0298356,-0.1229862,0.0147964,-0.0085138,0.01476,-0.086508,0.0
 421042,-0.00133,0.0220293,0.0349768,0.0029017,0.0265994,0.0735881,0.39
 58068,0.0934583,-0.4494319,0.0260698,0.2385505,-0.0534872,-0.1328481,-
 0.0353361,0.6134351,0.1145719,-0.0241121,0.063426,0.0746424,0.0612975,
 0.0381008,0.0441895,-0.0243408,0.050807,0.2885128,0.059007,-0.0511324,
 0.0414319,0.1928665,-0.0254768,0.0271619,0.059449,0.2731487,0.0897133,
 0.0614728,0.1761199,-0.2533323,0.5002777,0.1915836,-0.2911892,0.091486
 2,0.5736044,-0.2030951,0.2525582,-0.1128552,0.2027731,-0.1953172,0.052
 5256,0.0849044,-0.0001968,-0.045549,-1.0622822,-0.0848011,-0.0037994,0
 .0369491,-0.5967572,-0.1605363,-0.0019694,-0.0762536,-0.923633\Polar=6
 3.597172,-4.0275825,49.0189116,0.5468143,-3.2719439,63.2275919\PG=C01 
 [X(C3H8O2)]\NImag=1\\0.53755820,0.03708068,0.57851714,-0.06013614,-0.0
 4444911,0.17451267,-0.01612857,-0.00801713,0.00061071,0.30370304,-0.00
 094751,-0.01333144,-0.01234422,0.02598182,0.42658672,-0.01306075,-0.01
 614269,0.01830605,-0.07945154,-0.25054606,0.21551880,-0.01647538,-0.01
 392921,0.02714429,0.00014746,0.00049920,-0.00131883,0.07664051,0.00289
 761,0.00131652,-0.00420296,0.00218179,0.00058903,0.00030045,0.02749041
 ,0.07482906,0.00468591,0.00200199,-0.00436615,0.00379545,0.00119089,-0
 .00113853,-0.07312472,-0.06724321,0.24477061,-0.01077488,0.03506961,-0
 .00674841,0.00027230,-0.00015776,-0.00071817,0.00482445,-0.01053726,0.
 00360048,0.06045432,-0.00192134,-0.00496318,0.00466625,0.00111654,0.00
 157680,-0.00135796,0.00302778,-0.01064854,0.00443711,-0.04401919,0.298
 55403,0.00304802,-0.00225655,0.00041594,-0.00024054,0.00053403,-0.0008
 3991,-0.00606459,0.02634928,-0.00375062,0.00721495,-0.01918239,0.05722
 604,-0.19838238,-0.14235910,0.03440250,-0.00000914,0.00156069,-0.00279
 452,-0.00494287,0.00070756,-0.00011722,0.00120533,0.00018142,-0.000807
 60,0.19548619,-0.13505911,-0.20179052,0.03714034,0.00023898,0.00155691
 ,-0.00066491,0.00082878,0.00038698,-0.00149371,-0.00055001,0.00026020,
 -0.00032946,0.14472630,0.20693307,0.03875957,0.03516641,-0.04553799,-0
 .00714011,-0.00314799,-0.01696179,-0.00169502,-0.00007642,-0.00244474,
 0.00015729,-0.00133623,-0.00077975,-0.04090758,-0.04549894,0.03812554,
 -0.01315292,0.00425976,-0.01058881,0.00029407,-0.00052882,0.00125773,-
 0.00024032,-0.00017738,0.00049167,-0.00012171,0.00007907,0.00019373,0.
 00069672,0.00035278,0.00031794,0.16662760,0.01760780,0.00253305,0.0206
 4107,-0.00000759,-0.00152395,0.00102897,0.00045044,-0.00038398,-0.0001
 9179,-0.00032295,-0.00011666,-0.00007484,-0.00135555,0.00077926,-0.000
 83018,0.00542422,0.04671503,-0.00242871,-0.00209660,-0.00507960,0.0005
 8087,0.00153716,-0.00006306,0.00034290,-0.00000629,0.00013266,-0.00008
 745,0.00009227,-0.00001154,0.00051474,0.00073052,0.00139235,0.14043382
 ,0.00522062,0.19610964,0.01290564,0.00827505,-0.00320295,0.00003752,0.
 00000035,0.00036387,0.00049342,-0.00031443,0.00031253,0.00020028,-0.00
 031882,0.00002020,-0.00020067,0.00321755,0.00064105,-0.01201866,-0.009
 94584,0.00548967,0.21451878,-0.02552292,-0.02397217,0.00736084,0.00033
 354,0.00041116,-0.00002327,0.00066144,0.00001573,-0.00070049,-0.000285
 66,0.00027346,-0.00044637,0.00295457,-0.00424917,0.00075255,0.00179827
 ,0.00042161,-0.00115715,0.14056967,0.17562717,0.00364306,0.00300019,-0
 .00231397,-0.00011126,0.00040899,0.00030730,0.00020225,0.00014637,-0.0
 0033948,0.00004879,-0.00010921,-0.00019447,0.00059555,0.00127571,0.003
 27713,-0.01646826,-0.01616503,0.00608389,-0.04924351,-0.04103505,0.058
 78819,0.01726998,0.00627558,-0.02776741,-0.21207396,-0.04271961,0.0745
 4132,-0.00054164,-0.00312000,-0.00647624,-0.00013153,-0.00163048,0.000
 08979,0.00126653,0.00112854,0.00696941,-0.00059500,-0.00041976,-0.0000
 9299,0.00007583,-0.00036559,-0.00018100,0.18830268,0.00237656,0.005885
 32,-0.00952118,-0.00250402,-0.04876533,0.02493137,-0.00037329,-0.00122
 957,-0.00135843,0.00013799,-0.00079068,-0.00070977,0.00037846,0.000243
 81,0.00216831,-0.00019552,-0.00031549,-0.00032063,-0.00002811,-0.00018
 729,0.00040824,0.02811785,0.07081711,-0.01786596,-0.00703690,-0.000794
 92,0.01952964,0.01984099,-0.04783101,-0.00101148,0.00070629,0.00281412
 ,0.00048385,0.00105981,0.00021587,-0.00080362,-0.00048088,-0.00552400,
 0.00028495,-0.00001858,0.00030730,-0.00008225,0.00029801,0.00002373,-0
 .00116525,-0.01074454,0.04836885,-0.01266307,0.00874524,0.00592947,0.0
 0003561,-0.00131353,0.00104146,0.00050835,-0.00021163,-0.00033756,-0.0
 0092528,-0.00004356,-0.00043241,0.00041005,-0.00001156,-0.00041333,0.0
 1001965,-0.00843499,-0.01825622,-0.01074627,0.00852913,0.01771757,-0.0
 0090157,0.00055391,0.00019282,0.11682491,0.01871215,-0.01035865,-0.025
 41468,-0.00131494,0.00019428,0.00025812,-0.00057962,0.00045764,-0.0004
 0957,0.00155305,-0.00034084,-0.00021078,0.00007643,0.00085042,0.001637
 47,-0.00000217,-0.00013535,-0.00079173,-0.00965064,0.00780426,0.017061
 61,0.00193139,0.00043242,-0.00098811,-0.04652901,0.07700889,-0.0046942
 8,0.00047943,0.00679388,0.00058768,0.00179980,-0.00125235,0.00016554,-
 0.00011692,0.00000523,-0.00048505,0.00023208,0.00011613,0.00019954,-0.
 00035987,0.00026733,0.01105760,-0.00835835,-0.02005217,0.00111871,-0.0
 0118857,-0.00350381,-0.00103390,0.00000572,0.00050977,-0.11918060,0.07
 565319,0.23610850,-0.00066852,0.00124608,0.00356150,-0.03775281,0.0309
 1433,-0.01920258,0.00004732,0.00003329,0.00008565,-0.00001371,0.000065
 30,0.00022120,-0.00002825,-0.00010301,-0.00112828,0.00021160,0.0002813
 6,-0.00051646,-0.00000233,-0.00004331,-0.00011919,0.01159031,-0.030254
 16,0.01404092,0.00050662,-0.00023006,-0.00044789,0.03284098,-0.0014616
 1,-0.00060022,0.00966848,-0.00482951,-0.37282507,0.22630815,0.00005171
 ,-0.00003873,0.00006495,-0.00003025,-0.00050068,-0.00006187,-0.0007133
 1,-0.00036950,-0.00172293,0.00014594,0.00059336,-0.00016276,-0.0000052
 3,0.00000555,-0.00001107,0.00960452,-0.00677142,0.00115313,-0.00005421
 ,0.00026509,-0.00055098,-0.00383394,0.37724132,-0.00065130,0.00331668,
 0.00573755,0.00094998,0.22242527,-0.15333168,-0.00031725,-0.00008713,0
 .00003767,0.00011539,-0.00069074,-0.00052308,-0.00134296,-0.00020608,-
 0.00180949,0.00029947,0.00054449,-0.00030036,0.00002191,-0.00018741,-0
 .00000209,-0.00230726,0.00887533,-0.00603507,0.00024617,-0.00020840,-0
 .00063818,0.00066540,-0.23430668,0.15662950,-0.18869783,0.04295801,0.0
 5147658,-0.01240306,-0.00342669,0.00777899,-0.07684103,-0.02186012,0.0
 6670335,-0.05730780,0.04776375,-0.00524933,-0.00556262,0.00327235,-0.0
 1011861,-0.00070760,0.00312744,0.00032478,-0.00043085,-0.00165040,0.00
 089588,0.01150755,0.00607451,-0.00529694,0.00143299,-0.00325750,0.0003
 7941,-0.00041636,0.00024400,0.00029247,0.41790354,0.06984561,-0.095643
 50,0.00757002,-0.00598265,-0.00291056,0.00929290,-0.01985452,-0.072989
 01,0.07455721,0.03630030,-0.26235767,0.02854121,-0.01614237,0.01011290
 ,0.01171508,0.00040474,0.00041405,-0.00010677,0.00055052,0.00097066,-0
 .00017791,0.00465189,0.00158057,-0.00394403,0.00425187,-0.00573997,0.0
 0161850,-0.00056424,0.00159599,0.00123505,-0.04880434,0.55401651,0.072
 43042,0.01118871,-0.04206257,0.00406611,-0.00216675,0.01257214,0.07830
 064,0.06904450,-0.19575278,-0.00706349,0.03243724,-0.05115203,0.014723
 44,0.00300586,0.02044383,-0.00073282,0.00012787,-0.00276148,-0.0019952
 2,0.00006954,-0.00085468,-0.01125999,-0.00922512,-0.00447878,0.0012427
 0,0.00117898,-0.00176555,-0.00002857,0.00078529,0.00244716,-0.05173505
 ,-0.03962213,0.42943333,-0.09416966,0.03263143,0.00445788,0.00187085,0
 .00524748,-0.00474991,0.00058674,0.00101293,-0.00037481,-0.00364982,0.
 00101148,0.00028041,0.01055628,-0.02132580,0.00296972,-0.15147015,-0.0
 0655438,-0.12539574,-0.20365697,-0.12733107,0.04429953,-0.00057491,0.0
 0036506,0.00082491,-0.10584417,0.03932237,0.11277912,-0.00128445,-0.00
 136563,-0.00191114,-0.00930882,0.02348113,-0.00567387,0.55993177,0.042
 12739,-0.23373916,0.02018348,0.00001508,-0.00171575,0.00371114,-0.0012
 2699,0.00112861,0.00058595,-0.00032135,0.00082803,0.00023859,0.0108286
 1,-0.01568196,0.00222485,-0.01429377,-0.04793049,-0.00299132,-0.132864
 07,-0.15877940,0.03733744,0.00024640,-0.00069699,0.00037576,0.03589641
 ,-0.07215572,-0.06873632,0.00076500,0.00100093,0.00045303,0.00669838,-
 0.00488879,0.00436846,0.05060511,0.53226506,0.00744036,0.02527922,-0.0
 6745323,-0.00097120,0.00643084,-0.00513436,-0.00287472,0.00052469,0.00
 144212,0.00478981,-0.00085088,0.00146084,-0.00061561,0.00572569,0.0037
 0632,-0.12648842,0.00029998,-0.17646400,0.04618396,0.03661526,-0.06083
 698,0.00167579,0.00101038,-0.00087415,0.11309200,-0.07038031,-0.215854
 09,-0.00097911,-0.00129060,-0.00156742,-0.00956644,-0.01827503,0.00542
 992,-0.02886134,0.00208376,0.50945444,-0.01662061,-0.01223600,-0.01913
 922,-0.02799330,-0.01510996,0.03631294,0.01579298,0.00189723,0.0007555
 2,0.00596806,-0.00531196,0.00172615,-0.00049519,0.00328419,0.01158797,
 0.00045670,0.00014981,-0.00090922,-0.00117574,0.00035232,-0.00127941,-
 0.01519427,-0.00464925,-0.00913159,0.00134217,-0.00003143,-0.00044589,
 -0.00503039,0.00224752,0.00393911,-0.07916812,-0.04813795,-0.09227429,
 -0.00298669,0.00152380,-0.00282507,0.12510439,-0.02573530,-0.00385319,
 -0.01129833,-0.00721192,0.01015721,0.00290377,0.00295387,0.00656627,-0
 .01144090,-0.01683652,-0.02177428,-0.03239110,-0.00084372,0.00096759,-
 0.00105197,0.00273287,-0.00105044,0.00005267,0.00051400,0.00165843,-0.
 00214028,-0.00370072,-0.02020247,-0.00022096,-0.00137807,0.00171752,-0
 .00047770,0.00172334,0.00040338,-0.00116341,-0.03113940,-0.12416117,-0
 .07119243,0.00289989,0.00036565,0.01282698,0.07602167,0.14920550,-0.03
 117020,-0.00845076,-0.03815766,0.05779421,0.01403704,-0.02015162,-0.01
 974901,-0.02533865,-0.04141010,-0.00130799,-0.01939735,-0.00218342,-0.
 00304666,0.00115574,0.00584526,-0.00005859,-0.00222423,0.00070638,0.00
 037203,-0.00035791,-0.00043475,-0.03299227,-0.00551969,0.01329832,-0.0
 0084207,0.00261421,-0.00073470,0.00384741,0.00012688,-0.00064450,-0.04
 588508,-0.07240409,-0.17149852,0.00135522,0.00016517,0.00669059,0.0716
 8300,0.11559364,0.24867471\\0.00074937,0.00045624,-0.00334578,-0.00074
 917,-0.00043620,0.00334548,-0.00000004,-0.00001965,-0.00000009,0.00000
 005,0.00000007,0.00000003,-0.00000015,0.00000014,0.,-0.00000682,-0.000
 00224,-0.00000783,0.00000662,0.00000295,-0.00000096,-0.00000015,0.0000
 0009,0.00000010,-0.00000522,0.00000100,0.00000841,0.,-0.00000004,-0.00
 000006,-0.00000006,-0.00000027,0.00000012,0.00000575,-0.00000212,0.000
 00066,-0.00000020,0.00000002,-0.00000008\\\@


 EDUCATION IS NOT TRAINING BUT RATHER THE PROCESS THAT EQUIPS YOU TO
 ENTERTAIN YOURSELF, A FRIEND, OR AN IDEA.  -- WALLACE STERLING
 Job cpu time:  0 days  0 hours  7 minutes 49.5 seconds.
 File lengths (MBytes):  RWF=   1280 Int=      0 D2E=      0 Chk=     32 Scr=     32
 Normal termination of Gaussian 09 at Tue Mar  6 12:56:25 2018.
