 Entering Gaussian System, Link 0=g09
 Input=H2O-term-field.gjf
 Output=H2O-term-field.log
 Initial command:
 /share/home/zxchen/g09/l1.exe /scratch/zxchen/Gau-2161.inp -scrdir=/scratch/zxchen/
 Entering Link 1 = /share/home/zxchen/g09/l1.exe PID=      2162.
  
 Copyright (c) 1988,1990,1992,1993,1995,1998,2003,2009,2010,
            Gaussian, Inc.  All Rights Reserved.
  
 This is part of the Gaussian(R) 09 program.  It is based on
 the Gaussian(R) 03 system (copyright 2003, Gaussian, Inc.),
 the Gaussian(R) 98 system (copyright 1998, Gaussian, Inc.),
 the Gaussian(R) 94 system (copyright 1995, Gaussian, Inc.),
 the Gaussian 92(TM) system (copyright 1992, Gaussian, Inc.),
 the Gaussian 90(TM) system (copyright 1990, Gaussian, Inc.),
 the Gaussian 88(TM) system (copyright 1988, Gaussian, Inc.),
 the Gaussian 86(TM) system (copyright 1986, Carnegie Mellon
 University), and the Gaussian 82(TM) system (copyright 1983,
 Carnegie Mellon University). Gaussian is a federally registered
 trademark of Gaussian, Inc.
  
 This software contains proprietary and confidential information,
 including trade secrets, belonging to Gaussian, Inc.
  
 This software is provided under written license and may be
 used, copied, transmitted, or stored only in accord with that
 written license.
  
 The following legend is applicable only to US Government
 contracts under FAR:
  
                    RESTRICTED RIGHTS LEGEND
  
 Use, reproduction and disclosure by the US Government is
 subject to restrictions as set forth in subparagraphs (a)
 and (c) of the Commercial Computer Software - Restricted
 Rights clause in FAR 52.227-19.
  
 Gaussian, Inc.
 340 Quinnipiac St., Bldg. 40, Wallingford CT 06492
  
  
 ---------------------------------------------------------------
 Warning -- This program may not be used in any manner that
 competes with the business of Gaussian, Inc. or will provide
 assistance to any competitor of Gaussian, Inc.  The licensee
 of this program is prohibited from giving any competitor of
 Gaussian, Inc. access to this program.  By using this program,
 the user acknowledges that Gaussian, Inc. is engaged in the
 business of creating and licensing software in the field of
 computational chemistry and represents and warrants to the
 licensee that it is not a competitor of Gaussian, Inc. and that
 it will not use this program in any manner prohibited above.
 ---------------------------------------------------------------
  

 Cite this work as:
 Gaussian 09, Revision B.01,
 M. J. Frisch, G. W. Trucks, H. B. Schlegel, G. E. Scuseria, 
 M. A. Robb, J. R. Cheeseman, G. Scalmani, V. Barone, B. Mennucci, 
 G. A. Petersson, H. Nakatsuji, M. Caricato, X. Li, H. P. Hratchian, 
 A. F. Izmaylov, J. Bloino, G. Zheng, J. L. Sonnenberg, M. Hada, 
 M. Ehara, K. Toyota, R. Fukuda, J. Hasegawa, M. Ishida, T. Nakajima, 
 Y. Honda, O. Kitao, H. Nakai, T. Vreven, J. A. Montgomery, Jr., 
 J. E. Peralta, F. Ogliaro, M. Bearpark, J. J. Heyd, E. Brothers, 
 K. N. Kudin, V. N. Staroverov, T. Keith, R. Kobayashi, J. Normand, 
 K. Raghavachari, A. Rendell, J. C. Burant, S. S. Iyengar, J. Tomasi, 
 M. Cossi, N. Rega, J. M. Millam, M. Klene, J. E. Knox, J. B. Cross, 
 V. Bakken, C. Adamo, J. Jaramillo, R. Gomperts, R. E. Stratmann, 
 O. Yazyev, A. J. Austin, R. Cammi, C. Pomelli, J. W. Ochterski, 
 R. L. Martin, K. Morokuma, V. G. Zakrzewski, G. A. Voth, 
 P. Salvador, J. J. Dannenberg, S. Dapprich, A. D. Daniels, 
 O. Farkas, J. B. Foresman, J. V. Ortiz, J. Cioslowski, 
 and D. J. Fox, Gaussian, Inc., Wallingford CT, 2010.
 
 ******************************************
 Gaussian 09:  EM64L-G09RevB.01 12-Aug-2010
                 6-Mar-2018 
 ******************************************
 %chk=ts\H2O-term-field.chk
 %nprocshared=24
 Will use up to   24 processors via shared memory.
 ----------------------------------------------------------------------
 # field=z-25 freq opt=(z-matrix,ts,calcfc,noeigen) nosymm rb3lyp/6-31+
 +g(d,p)
 ----------------------------------------------------------------------
 1/5=1,10=4,11=1,14=-1,18=40,26=3,38=1/1,3;
 2/12=2,15=1,17=6,18=5,29=3,40=1/2;
 3/5=1,6=6,7=1111,11=2,14=3,15=-25,16=1,25=1,30=1,71=2,74=-5,116=1/1,2,3;
 4//1;
 5/5=2,38=5/2;
 8/6=4,10=90,11=11/1;
 11/6=1,8=1,9=11,15=111,16=1,31=1/1,2,10;
 10/6=1,7=6,13=1,31=1/2;
 6/7=2,8=2,9=2,10=2,28=1/1;
 7/10=1,18=20,25=1,30=1/1,2,3,16;
 1/5=1,10=4,11=1,14=-1,18=40/3(2);
 2/15=1,29=3/2;
 99//99;
 2/15=1,29=3/2;
 3/5=1,6=6,7=1111,11=2,14=3,15=-25,16=1,25=1,30=1,71=1,74=-5,116=1/1,2,3;
 4/5=5,16=3/1;
 5/5=2,38=5/2;
 7/30=1/1,2,3,16;
 1/5=1,11=1,14=-1,18=40/3(-5);
 2/15=1,29=3/2;
 6/7=2,8=2,9=2,10=2,19=2,28=1/1;
 99/9=1/99;
 ------------
 OH-BACK-TERM
 ------------
 Symbolic Z-matrix:
 Charge =  0 Multiplicity = 1
 C
 O                    1     2.20329 
 H                    2    B1       1    A1
 H                    2    B2       1    A2       3    D1       0
 H                    1    B3       2    A3       3    D2       0
 H                    1    B4       2    A4       3    D3       0
 H                    1    B5       2    A5       3    D4       0
 H                    1    B6       2    A6       3    D5       0
 H                    1    B7       2    A7       3    D6       0
 H                    1    B8       2    A8       3    D7       0
 C                    1    B9       2    A9       3    D8       0
 C                    1    B10      2    A10      11   D9       0
 O                    12   B11      1    A11      2    D10      0
       Variables:
  B1                    0.96                     
  B2                    1.04473                  
  B3                    1.07                     
  B4                    1.07                     
  B5                    2.76608                  
  B6                    2.88703                  
  B7                    3.43834                  
  B8                    2.09921                  
  B9                    2.54685                  
  B10                   1.47699                  
  B11                   1.43                     
  A1                  109.94163                  
  A2                   71.37976                  
  A3                   98.99694                  
  A4                   76.87242                  
  A5                   76.16809                  
  A6                  111.81475                  
  A7                   95.76582                  
  A8                  126.38247                  
  A9                   95.91841                  
  A10                 101.64969                  
  A11                  94.21089                  
  D1                 -101.99684                  
  D2                    6.47843                  
  D3                 -109.92239                  
  D4                  170.80164                  
  D5                  174.47812                  
  D6                  147.87599                  
  D7                  110.88798                  
  D8                  159.41149                  
  D9                  -32.54484                  
  D10                 -37.76004                  
 

 GradGradGradGradGradGradGradGradGradGradGradGradGradGradGradGradGradGrad
 Berny optimization.
 Initialization pass.
                       ----------------------------
                       !    Initial Parameters    !
                       ! (Angstroms and Degrees)  !
 ----------------------                            ----------------------
 !      Name          Value   Derivative information (Atomic Units)     !
 ------------------------------------------------------------------------
 !       B1          0.96     calculate D2E/DX2 analytically            !
 !       B2          1.0447   calculate D2E/DX2 analytically            !
 !       B3          1.07     calculate D2E/DX2 analytically            !
 !       B4          1.07     calculate D2E/DX2 analytically            !
 !       B5          2.7661   calculate D2E/DX2 analytically            !
 !       B6          2.887    calculate D2E/DX2 analytically            !
 !       B7          3.4383   calculate D2E/DX2 analytically            !
 !       B8          2.0992   calculate D2E/DX2 analytically            !
 !       B9          2.5469   calculate D2E/DX2 analytically            !
 !       B10         1.477    calculate D2E/DX2 analytically            !
 !       B11         1.43     calculate D2E/DX2 analytically            !
 !       A1        109.9416   calculate D2E/DX2 analytically            !
 !       A2         71.3798   calculate D2E/DX2 analytically            !
 !       A3         98.9969   calculate D2E/DX2 analytically            !
 !       A4         76.8724   calculate D2E/DX2 analytically            !
 !       A5         76.1681   calculate D2E/DX2 analytically            !
 !       A6        111.8147   calculate D2E/DX2 analytically            !
 !       A7         95.7658   calculate D2E/DX2 analytically            !
 !       A8        126.3825   calculate D2E/DX2 analytically            !
 !       A9         95.9184   calculate D2E/DX2 analytically            !
 !       A10       101.6497   calculate D2E/DX2 analytically            !
 !       A11        94.2109   calculate D2E/DX2 analytically            !
 !       D1       -101.9968   calculate D2E/DX2 analytically            !
 !       D2          6.4784   calculate D2E/DX2 analytically            !
 !       D3       -109.9224   calculate D2E/DX2 analytically            !
 !       D4        170.8016   calculate D2E/DX2 analytically            !
 !       D5        174.4781   calculate D2E/DX2 analytically            !
 !       D6        147.876    calculate D2E/DX2 analytically            !
 !       D7        110.888    calculate D2E/DX2 analytically            !
 !       D8        159.4115   calculate D2E/DX2 analytically            !
 !       D9        -32.5448   calculate D2E/DX2 analytically            !
 !       D10       -37.76     calculate D2E/DX2 analytically            !
 ------------------------------------------------------------------------
 Trust Radius=3.00D-01 FncErr=1.00D-07 GrdErr=1.00D-06
 Number of steps in this run=     42 maximum allowed number of steps=    100.
 Search for a saddle point of order  1.
 GradGradGradGradGradGradGradGradGradGradGradGradGradGradGradGradGradGrad

 ---------------------------------------------------------------------------------------------------
                            Z-MATRIX (ANGSTROMS AND DEGREES)
   CD    Cent   Atom    N1       Length/X        N2       Alpha/Y        N3        Beta/Z          J
 ---------------------------------------------------------------------------------------------------
      1      1  C 
      2      2  O        1   2.203291(     1)
      3      3  H        2   0.960000(     2)      1  109.942(    13)
      4      4  H        2   1.044733(     3)      1   71.380(    14)      3 -101.997(    24)      0
      5      5  H        1   1.070000(     4)      2   98.997(    15)      3    6.478(    25)      0
      6      6  H        1   1.070000(     5)      2   76.872(    16)      3 -109.922(    26)      0
      7      7  H        1   2.766076(     6)      2   76.168(    17)      3  170.802(    27)      0
      8      8  H        1   2.887029(     7)      2  111.815(    18)      3  174.478(    28)      0
      9      9  H        1   3.438336(     8)      2   95.766(    19)      3  147.876(    29)      0
     10     10  H        1   2.099214(     9)      2  126.382(    20)      3  110.888(    30)      0
     11     11  C        1   2.546853(    10)      2   95.918(    21)      3  159.411(    31)      0
     12     12  C        1   1.476987(    11)      2  101.650(    22)     11  -32.545(    32)      0
     13     13  O       12   1.430000(    12)      1   94.211(    23)      2  -37.760(    33)      0
 ---------------------------------------------------------------------------------------------------
                         Z-Matrix orientation:                         
 ---------------------------------------------------------------------
 Center     Atomic      Atomic             Coordinates (Angstroms)
 Number     Number       Type             X           Y           Z
 ---------------------------------------------------------------------
      1          6           0        0.000000    0.000000    0.000000
      2          8           0        0.000000    0.000000    2.203291
      3          1           0        0.902439    0.000000    2.530711
      4          1           0       -0.205789   -0.968423    1.869714
      5          1           0        1.050087   -0.119242   -0.167328
      6          1           0       -0.355071    0.979677    0.243019
      7          1           0       -2.651325   -0.429343    0.661298
      8          1           0       -2.667852   -0.257913   -1.072840
      9          1           0       -2.897191   -1.819097   -0.345425
     10          1           0       -0.602565   -1.578956   -1.245196
     11          6           0       -2.371478   -0.890837   -0.262612
     12          6           0       -0.867872   -1.157299   -0.298244
     13          8           0       -0.367488   -1.945660    0.784808
 ---------------------------------------------------------------------
                    Distance matrix (angstroms):
                    1          2          3          4          5
     1  C    0.000000
     2  O    2.203291   0.000000
     3  H    2.686800   0.960000   0.000000
     4  H    2.115661   1.044733   1.613360   0.000000
     5  H    1.070000   2.595522   2.704706   2.539266   0.000000
     6  H    1.070000   2.220024   2.788303   2.542344   1.830431
     7  H    2.766076   3.097032   4.038351   2.780562   3.805685
     8  H    2.887029   4.232846   5.079279   3.901948   3.829132
     9  H    3.438336   4.266003   5.100830   3.588054   4.301422
    10  H    2.099214   3.840345   4.360689   3.198882   2.454348
    11  C    2.546853   3.535275   4.394857   3.040236   3.508781
    12  C    1.476987   2.889674   3.532184   2.274658   2.184781
    13  O    2.129921   2.435720   2.906283   1.469067   2.500377
                    6          7          8          9         10
     6  H    0.000000
     7  H    2.726367   0.000000
     8  H    2.934632   1.742669   0.000000
     9  H    3.826457   1.733596   1.737534   0.000000
    10  H    2.970292   3.025516   2.457696   2.476402   0.000000
    11  C    2.796494   1.070000   1.070000   1.070000   2.137295
    12  C    2.263315   2.152056   2.156113   2.135027   1.070000
    13  O    2.975111   2.744155   3.404559   2.773598   2.076211
                   11         12         13
    11  C    0.000000
    12  C    1.527449   0.000000
    13  O    2.495138   1.430000   0.000000
 Symmetry turned off by external request.
 Stoichiometry    C3H8O2
 Framework group  C1[X(C3H8O2)]
 Deg. of freedom    33
 Full point group                 C1      NOp   1
 Rotational constants (GHZ):      7.0600530      3.2958543      3.1474056
 Standard basis: 6-31++G(d,p) (6D, 7F)
 The following finite field(s) will be applied:
 An electric field of              0.0000  0.0000 -0.0025
 Integral buffers will be    131072 words long.
 Raffenetti 2 integral format.
 Two-electron integral symmetry is turned off.
   143 basis functions,   224 primitive gaussians,   143 cartesian basis functions
    21 alpha electrons       21 beta electrons
       nuclear repulsion energy       189.7847448441 Hartrees.
 NAtoms=   13 NActive=   13 NUniq=   13 SFac= 1.00D+00 NAtFMM=   50 NAOKFM=F Big=F
 One-electron integrals computed using PRISM.
 PrsmSu:  requested number of processors reduced to:  10 ShMem   1 Linda.
 NBasis=   143 RedAO= T  NBF=   143
 NBsUse=   143 1.00D-06 NBFU=   143
 The nuclear repulsion energy is now       189.6760213016 hartrees.
 Harris functional with IExCor=  402 diagonalized for initial guess.
 ExpMin= 3.60D-02 ExpMax= 5.48D+03 ExpMxC= 8.25D+02 IAcc=3 IRadAn=         0 AccDes= 0.00D+00
 HarFok:  IExCor=  402 AccDes= 0.00D+00 IRadAn=         0 IDoV= 1
 ScaDFX=  1.000000  1.000000  1.000000  1.000000
 FoFCou: FMM=F IPFlag=           0 FMFlag=      100000 FMFlg1=           0
         NFxFlg=           0 DoJE=T BraDBF=F KetDBF=T FulRan=T
         Omega=  0.000000  0.000000  1.000000  0.000000  0.000000 ICntrl=     500 IOpCl=  0
         NMat0=    1 NMatS0=    1 NMatT0=    0 NMatD0=    1 NMtDS0=    0 NMtDT0=    0
         I1Cent=           4 NGrid=           0.
 Symmetry not used in FoFCou.
 Requested convergence on RMS density matrix=1.00D-08 within 128 cycles.
 Requested convergence on MAX density matrix=1.00D-06.
 Requested convergence on             energy=1.00D-06.
 No special actions if energy rises.
 EnCoef did     1 forward-backward iterations
 EnCoef did     2 forward-backward iterations
 SCF Done:  E(RB3LYP) =  -269.483278067     A.U. after   15 cycles
             Convg  =    0.7342D-08             -V/T =  2.0089
 Range of M.O.s used for correlation:     1   143
 NBasis=   143 NAE=    21 NBE=    21 NFC=     0 NFV=     0
 NROrb=    143 NOA=    21 NOB=    21 NVA=   122 NVB=   122

 **** Warning!!: The largest alpha MO coefficient is  0.35506317D+02

 PrsmSu:  requested number of processors reduced to:  10 ShMem   1 Linda.
 PrsmSu:  requested number of processors reduced to:  17 ShMem   1 Linda.
 Symmetrizing basis deriv contribution to polar:
 IMax=3 JMax=2 DiffMx= 0.00D+00
 G2DrvN: will do     3 centers at a time, making    5 passes doing MaxLOS=2.
 Estimated number of processors is:   15
 Calling FoFCou, ICntrl=  3107 FMM=F I1Cent=   0 AccDes= 0.00D+00.
 CoulSu:  requested number of processors reduced to:  15 ShMem   1 Linda.
 Calling FoFCou, ICntrl=  3107 FMM=F I1Cent=   0 AccDes= 0.00D+00.
 CoulSu:  requested number of processors reduced to:  15 ShMem   1 Linda.
 Calling FoFCou, ICntrl=  3107 FMM=F I1Cent=   0 AccDes= 0.00D+00.
 CoulSu:  requested number of processors reduced to:  15 ShMem   1 Linda.
 Calling FoFCou, ICntrl=  3107 FMM=F I1Cent=   0 AccDes= 0.00D+00.
 CoulSu:  requested number of processors reduced to:  15 ShMem   1 Linda.
 Calling FoFCou, ICntrl=  3107 FMM=F I1Cent=   0 AccDes= 0.00D+00.
 CoulSu:  requested number of processors reduced to:  15 ShMem   1 Linda.
 FoFDir/FoFCou used for L=0 through L=2.
 End of G2Drv Frequency-dependent properties file   721 does not exist.
 End of G2Drv Frequency-dependent properties file   722 does not exist.
          IDoAtm=1111111111111
          Differentiating once with respect to nuclear coordinates.
 PrRfSu:  requested number of processors reduced to:  16 ShMem   1 Linda.
 CalDSu:  requested number of processors reduced to:  22 ShMem   1 Linda.
 PrRfSu:  requested number of processors reduced to:  16 ShMem   1 Linda.
 CalDSu:  requested number of processors reduced to:  22 ShMem   1 Linda.
          There are    42 degrees of freedom in the 1st order CPHF.  IDoFFX=5.
     36 vectors produced by pass  0 Test12= 6.10D-11 2.38D-07 XBig12= 1.48D-01 3.03D-01.
 AX will form    36 AO Fock derivatives at one time.
 PrRfSu:  requested number of processors reduced to:  15 ShMem   1 Linda.
 CalDSu:  requested number of processors reduced to:  19 ShMem   1 Linda.
     36 vectors produced by pass  1 Test12= 6.10D-11 2.38D-07 XBig12= 6.79D-02 6.65D-02.
 PrRfSu:  requested number of processors reduced to:  15 ShMem   1 Linda.
 CalDSu:  requested number of processors reduced to:  19 ShMem   1 Linda.
     36 vectors produced by pass  2 Test12= 6.10D-11 2.38D-07 XBig12= 2.58D-04 1.95D-03.
 PrRfSu:  requested number of processors reduced to:  15 ShMem   1 Linda.
 CalDSu:  requested number of processors reduced to:  19 ShMem   1 Linda.
     36 vectors produced by pass  3 Test12= 6.10D-11 2.38D-07 XBig12= 7.60D-07 1.11D-04.
 PrRfSu:  requested number of processors reduced to:  15 ShMem   1 Linda.
 CalDSu:  requested number of processors reduced to:  19 ShMem   1 Linda.
     16 vectors produced by pass  4 Test12= 6.10D-11 2.38D-07 XBig12= 1.37D-09 5.29D-06.
 PrRfSu:  requested number of processors reduced to:  17 ShMem   1 Linda.
 CalDSu:  requested number of processors reduced to:  23 ShMem   1 Linda.
 Inverted reduced A of dimension   160 with in-core refinement.
 End of Minotr Frequency-dependent properties file   721 does not exist.
 End of Minotr Frequency-dependent properties file   722 does not exist.

 **********************************************************************

            Population analysis using the SCF density.

 **********************************************************************

 Alpha  occ. eigenvalues --  -19.16135 -19.11120 -10.28746 -10.24765 -10.17789
 Alpha  occ. eigenvalues --   -1.01237  -0.95470  -0.77058  -0.71577  -0.59783
 Alpha  occ. eigenvalues --   -0.53116  -0.49722  -0.47322  -0.44007  -0.40511
 Alpha  occ. eigenvalues --   -0.39018  -0.37903  -0.35403  -0.33182  -0.24438
 Alpha  occ. eigenvalues --   -0.24068
 Alpha virt. eigenvalues --   -0.11209  -0.01715   0.00120   0.01097   0.02589
 Alpha virt. eigenvalues --    0.03846   0.04142   0.05574   0.06668   0.07534
 Alpha virt. eigenvalues --    0.08952   0.09885   0.10919   0.11816   0.12700
 Alpha virt. eigenvalues --    0.13118   0.14174   0.15253   0.15923   0.16574
 Alpha virt. eigenvalues --    0.17653   0.19626   0.20300   0.20581   0.20871
 Alpha virt. eigenvalues --    0.22762   0.24139   0.26080   0.26550   0.27348
 Alpha virt. eigenvalues --    0.28282   0.31222   0.31598   0.33233   0.33940
 Alpha virt. eigenvalues --    0.36676   0.38237   0.39522   0.41334   0.45709
 Alpha virt. eigenvalues --    0.64035   0.65576   0.70034   0.72012   0.75189
 Alpha virt. eigenvalues --    0.75911   0.77168   0.78798   0.87003   0.93382
 Alpha virt. eigenvalues --    0.96741   0.97339   0.98902   1.00762   1.04401
 Alpha virt. eigenvalues --    1.07222   1.13321   1.15869   1.17142   1.18144
 Alpha virt. eigenvalues --    1.21189   1.23635   1.29971   1.33282   1.35641
 Alpha virt. eigenvalues --    1.42400   1.43497   1.47768   1.52961   1.55752
 Alpha virt. eigenvalues --    1.61668   1.63692   1.69170   1.73366   1.78466
 Alpha virt. eigenvalues --    1.78867   1.82627   1.84027   1.88505   1.91252
 Alpha virt. eigenvalues --    2.00478   2.03836   2.04688   2.10053   2.13550
 Alpha virt. eigenvalues --    2.14643   2.17534   2.23631   2.27499   2.31342
 Alpha virt. eigenvalues --    2.35738   2.37670   2.39618   2.41283   2.46290
 Alpha virt. eigenvalues --    2.55462   2.56112   2.60579   2.67287   2.67927
 Alpha virt. eigenvalues --    2.74084   2.76321   2.81807   2.85515   2.87818
 Alpha virt. eigenvalues --    2.95597   3.02463   3.07048   3.09825   3.31901
 Alpha virt. eigenvalues --    3.36664   3.40643   3.44266   3.49261   3.52377
 Alpha virt. eigenvalues --    3.54926   3.73529   4.21384   4.34461   4.42176
 Alpha virt. eigenvalues --    4.50893   4.68264
          Condensed to atoms (all electrons):
              1          2          3          4          5          6
     1  C    5.696488   0.015825   0.005830   0.030276   0.356641   0.401758
     2  O    0.015825   8.425623   0.246013   0.139734  -0.006576  -0.059065
     3  H    0.005830   0.246013   0.393786  -0.009296  -0.006370   0.003967
     4  H    0.030276   0.139734  -0.009296   0.335027  -0.003667   0.008448
     5  H    0.356641  -0.006576  -0.006370  -0.003667   0.579227  -0.059130
     6  H    0.401758  -0.059065   0.003967   0.008448  -0.059130   0.525500
     7  H   -0.013409   0.006725  -0.000707   0.002580  -0.001770   0.005179
     8  H   -0.000728  -0.000340   0.000097   0.001101   0.001031  -0.004793
     9  H    0.004951   0.001938  -0.000032  -0.002640  -0.002868   0.001609
    10  H   -0.065139  -0.009224   0.001503   0.012772  -0.051891   0.024434
    11  C    0.324348  -0.049763   0.003633   0.012543   0.036662   0.008691
    12  C   -0.522605   0.112902  -0.014680  -0.099081  -0.047103  -0.082526
    13  O   -0.016009  -0.153594   0.009049   0.125694   0.004337   0.018666
              7          8          9         10         11         12
     1  C   -0.013409  -0.000728   0.004951  -0.065139   0.324348  -0.522605
     2  O    0.006725  -0.000340   0.001938  -0.009224  -0.049763   0.112902
     3  H   -0.000707   0.000097  -0.000032   0.001503   0.003633  -0.014680
     4  H    0.002580   0.001101  -0.002640   0.012772   0.012543  -0.099081
     5  H   -0.001770   0.001031  -0.002868  -0.051891   0.036662  -0.047103
     6  H    0.005179  -0.004793   0.001609   0.024434   0.008691  -0.082526
     7  H    0.483121  -0.034774  -0.013074   0.006882   0.412275  -0.045593
     8  H   -0.034774   0.584445  -0.027553  -0.005648   0.394373  -0.045344
     9  H   -0.013074  -0.027553   0.506235  -0.003364   0.393941  -0.024062
    10  H    0.006882  -0.005648  -0.003364   0.754852  -0.101657   0.356162
    11  C    0.412275   0.394373   0.393941  -0.101657   5.945866  -0.740937
    12  C   -0.045593  -0.045344  -0.024062   0.356162  -0.740937   6.736104
    13  O    0.003470   0.008709  -0.006190  -0.046847  -0.094436   0.248871
             13
     1  C   -0.016009
     2  O   -0.153594
     3  H    0.009049
     4  H    0.125694
     5  H    0.004337
     6  H    0.018666
     7  H    0.003470
     8  H    0.008709
     9  H   -0.006190
    10  H   -0.046847
    11  C   -0.094436
    12  C    0.248871
    13  O    8.471458
 Mulliken atomic charges:
              1
     1  C   -0.218225
     2  O   -0.670198
     3  H    0.367206
     4  H    0.446509
     5  H    0.201476
     6  H    0.207264
     7  H    0.189094
     8  H    0.129425
     9  H    0.171109
    10  H    0.127165
    11  C   -0.545539
    12  C    0.167891
    13  O   -0.573177
 Sum of Mulliken atomic charges =   0.00000
 Mulliken charges with hydrogens summed into heavy atoms:
              1
     1  C    0.190515
     2  O    0.143517
    11  C   -0.055911
    12  C    0.295056
    13  O   -0.573177
 Sum of Mulliken charges with hydrogens summed into heavy atoms =   0.00000
 APT atomic charges:
              1
     1  C   -0.396919
     2  O   -0.859638
     3  H    0.616050
     4  H    0.360420
     5  H    0.391686
     6  H    0.371584
     7  H    0.329830
     8  H    0.344558
     9  H    0.610520
    10  H    0.374788
    11  C   -1.251687
    12  C   -0.274824
    13  O   -0.616366
 Sum of APT charges=   0.00000
 APT Atomic charges with hydrogens summed into heavy atoms:
              1
     1  C    0.366350
     2  O    0.116832
     3  H    0.000000
     4  H    0.000000
     5  H    0.000000
     6  H    0.000000
     7  H    0.000000
     8  H    0.000000
     9  H    0.000000
    10  H    0.000000
    11  C    0.033220
    12  C    0.099964
    13  O   -0.616366
 Sum of APT charges=   0.00000
 Electronic spatial extent (au):  <R**2>=            695.2950
 Charge=              0.0000 electrons
 Dipole moment (field-independent basis, Debye):
    X=              1.2190    Y=              2.6455    Z=             -1.6792  Tot=              3.3622
 Quadrupole moment (field-independent basis, Debye-Ang):
   XX=            -29.3013   YY=            -40.0901   ZZ=            -33.2367
   XY=              0.3930   XZ=              4.1934   YZ=              1.9192
 Traceless Quadrupole moment (field-independent basis, Debye-Ang):
   XX=              4.9081   YY=             -5.8807   ZZ=              0.9727
   XY=              0.3930   XZ=              4.1934   YZ=              1.9192
 Octapole moment (field-independent basis, Debye-Ang**2):
  XXX=             74.3566  YYY=             94.7413  ZZZ=            -46.2879  XYY=             24.0983
  XXY=             23.1322  XXZ=            -11.6161  XZZ=             36.0923  YZZ=             21.9554
  YYZ=            -23.5269  XYZ=             -1.0672
 Hexadecapole moment (field-independent basis, Debye-Ang**3):
 XXXX=           -345.7402 YYYY=           -313.2480 ZZZZ=           -277.5461 XXXY=            -72.0064
 XXXZ=            -16.0224 YYYX=            -77.7305 YYYZ=             33.6040 ZZZX=             12.5271
 ZZZY=              5.0960 XXYY=            -99.6582 XXZZ=            -95.0422 YYZZ=            -93.5106
 XXYZ=              6.5568 YYXZ=             -1.5212 ZZXY=            -26.4351
 N-N= 1.896760213016D+02 E-N=-1.009638169077D+03  KE= 2.671084501803D+02
  Exact polarizability:   0.000   0.000   0.000   0.000   0.000   0.000
 Approx polarizability:  63.858  10.943 102.297   3.837  -4.807  89.085
 PrsmSu:  requested number of processors reduced to:  10 ShMem   1 Linda.
 PrsmSu:  requested number of processors reduced to:  10 ShMem   1 Linda.
 Calling FoFJK, ICntrl=    100147 FMM=F ISym2X=0 I1Cent= 0 IOpClX= 0 NMat=1 NMatS=1 NMatT=0.
 CoulSu:  requested number of processors reduced to:  10 ShMem   1 Linda.
 CalDSu:  requested number of processors reduced to:  23 ShMem   1 Linda.
 -------------------------------------------------------------------
 Center     Atomic                   Forces (Hartrees/Bohr)
 Number     Number              X              Y              Z
 -------------------------------------------------------------------
      1        6          -0.006634682   -0.009177180    0.004134140
      2        8          -0.007756313    0.001386709   -0.005765792
      3        1           0.007821531    0.000201574    0.003448476
      4        1          -0.000016487   -0.001484442    0.000711191
      5        1           0.010385278   -0.001115062   -0.001897878
      6        1          -0.003587780    0.009278795    0.001912024
      7        1          -0.004286748    0.007205712    0.014741488
      8        1          -0.004736519    0.011480838   -0.014668590
      9        1          -0.007838772   -0.014608422   -0.001090231
     10        1           0.006644752   -0.010764161   -0.018929560
     11        6           0.016860468   -0.004502162    0.002571487
     12        6          -0.000761562    0.002996582    0.029713368
     13        8          -0.006093166    0.009101221   -0.014880121
 -------------------------------------------------------------------
 Cartesian Forces:  Max     0.029713368 RMS     0.009511382
 -----------------------------------------------------------------------------------------------
                       Internal Coordinate Forces (Hartree/Bohr or radian)
  Cent   Atom   N1       Length/X         N2         Alpha/Y        N3         Beta/Z          J
 -----------------------------------------------------------------------------------------------
      1  C 
      2  O        1  -0.001606(     1)
      3  H        2   0.008529(     2)      1   0.001041(    13)
      4  H        2   0.001152(     3)      1   0.002248(    14)      3   0.000547(    24)     0
      5  H        1   0.010613(     4)      2   0.000488(    15)      3  -0.000127(    25)     0
      6  H        1   0.010120(     5)      2   0.000803(    16)      3  -0.000416(    26)     0
      7  H        1   0.006515(     6)      2  -0.070972(    17)      3   0.039581(    27)     0
      8  H        1   0.008802(     7)      2   0.066978(    18)      3   0.060189(    28)     0
      9  H        1   0.014443(     8)      2  -0.002356(    19)      3  -0.053033(    29)     0
     10  H        1   0.017418(     9)      2   0.042366(    20)      3  -0.032084(    30)     0
     11  C        1  -0.014390(    10)      2  -0.005263(    21)      3  -0.013256(    31)     0
     12  C        1  -0.008447(    11)      2  -0.035538(    22)     11   0.035304(    32)     0
     13  O       12  -0.018420(    12)      1   0.002185(    23)      2  -0.003239(    33)     0
 -----------------------------------------------------------------------------------------------
 Internal  Forces:  Max     0.070972405 RMS     0.027320537

 GradGradGradGradGradGradGradGradGradGradGradGradGradGradGradGradGradGrad
 Berny optimization.
 Search for a saddle point.
 Step number   1 out of a maximum of   42
 All quantities printed in internal units (Hartrees-Bohrs-Radians)
 Swaping is turned off.
 Second derivative matrix not updated -- analytic derivatives used.
 ITU=  0
     Eigenvalues ---   -0.10740  -0.04523   0.00212   0.01024   0.01288
     Eigenvalues ---    0.03432   0.05970   0.06249   0.07489   0.09607
     Eigenvalues ---    0.12949   0.14833   0.16173   0.23227   0.27140
     Eigenvalues ---    0.29943   0.32353   0.39475   0.40303   0.40472
     Eigenvalues ---    0.45630   0.55934   0.57514   0.78469   1.22088
     Eigenvalues ---    2.49234   3.22166   3.76893   6.35802   7.49982
     Eigenvalues ---   18.73229  22.04891
 Eigenvectors required to have negative eigenvalues:
                          D4        D5        A6        A7        A11
   1                    0.46249  -0.41246   0.32795  -0.31772   0.25450
                          A10       A5        A8        B6        B2
   1                   -0.24648   0.24646  -0.21637   0.21069   0.19197
 RFO step:  Lambda0=5.438091540D-06 Lambda=-4.52424854D-02.
 Linear search not attempted -- option 19 set.
 Maximum step size (   0.300) exceeded in Quadratic search.
    -- Step size scaled by   0.397
 Variable       Old X    -DE/DX   Delta X   Delta X   Delta X     New X
                                 (Linear)    (Quad)   (Total)
    B1        1.81414   0.00853   0.00000   0.00411   0.00411   1.81824
    B2        1.97426   0.00115   0.00000  -0.09859  -0.09859   1.87567
    B3        2.02201   0.01061   0.00000   0.00732   0.00732   2.02933
    B4        2.02201   0.01012   0.00000   0.00397   0.00397   2.02597
    B5        5.22713   0.00651   0.00000  -0.08102  -0.08102   5.14610
    B6        5.45569   0.00880   0.00000   0.11835   0.11835   5.57404
    B7        6.49751   0.01444   0.00000  -0.01276  -0.01276   6.48475
    B8        3.96694   0.01742   0.00000   0.06523   0.06523   4.03217
    B9        4.81286  -0.01439   0.00000  -0.00278  -0.00278   4.81007
   B10        2.79110  -0.00845   0.00000  -0.01989  -0.01989   2.77121
   B11        2.70231  -0.01842   0.00000  -0.02243  -0.02243   2.67988
    A1        1.91884   0.00104   0.00000   0.05022   0.05022   1.96906
    A2        1.24581   0.00225   0.00000   0.01898   0.01898   1.26480
    A3        1.72782   0.00049   0.00000   0.02479   0.02479   1.75262
    A4        1.34168   0.00080   0.00000  -0.10189  -0.10189   1.23979
    A5        1.32938  -0.07097   0.00000   0.06056   0.06056   1.38994
    A6        1.95154   0.06698   0.00000   0.06993   0.06993   2.02146
    A7        1.67143  -0.00236   0.00000  -0.00499  -0.00499   1.66644
    A8        2.20579   0.04237   0.00000   0.06817   0.06817   2.27396
    A9        1.67409  -0.00526   0.00000   0.04369   0.04369   1.71779
   A10        1.77412  -0.03554   0.00000   0.08628   0.08628   1.86040
   A11        1.64429   0.00218   0.00000  -0.10912  -0.10912   1.53517
    D1       -1.78018   0.00055   0.00000   0.00486   0.00486  -1.77532
    D2        0.11307  -0.00013   0.00000  -0.02281  -0.02281   0.09026
    D3       -1.91851  -0.00042   0.00000  -0.01830  -0.01830  -1.93681
    D4        2.98105   0.03958   0.00000   0.05532   0.05532   3.03637
    D5        3.04522   0.06019   0.00000  -0.03579  -0.03579   3.00942
    D6        2.58092  -0.05303   0.00000  -0.00441  -0.00441   2.57651
    D7        1.93536  -0.03208   0.00000   0.00321   0.00321   1.93857
    D8        2.78226  -0.01326   0.00000   0.00431   0.00431   2.78656
    D9       -0.56801   0.03530   0.00000   0.00724   0.00724  -0.56078
   D10       -0.65904  -0.00324   0.00000  -0.02466  -0.02466  -0.68370
         Item               Value     Threshold  Converged?
 Maximum Force            0.070972     0.000450     NO 
 RMS     Force            0.027743     0.000300     NO 
 Maximum Displacement     0.118350     0.001800     NO 
 RMS     Displacement     0.053033     0.001200     NO 
 Predicted change in Energy=-3.969127D-03
 GradGradGradGradGradGradGradGradGradGradGradGradGradGradGradGradGradGrad

 ---------------------------------------------------------------------------------------------------
                            Z-MATRIX (ANGSTROMS AND DEGREES)
   CD    Cent   Atom    N1       Length/X        N2       Alpha/Y        N3        Beta/Z          J
 ---------------------------------------------------------------------------------------------------
      1      1  C 
      2      2  O        1   2.203291(     1)
      3      3  H        2   0.962173(     2)      1  112.819(    13)
      4      4  H        2   0.992562(     3)      1   72.467(    14)      3 -101.718(    24)      0
      5      5  H        1   1.073876(     4)      2  100.418(    15)      3    5.172(    25)      0
      6      6  H        1   1.072099(     5)      2   71.034(    16)      3 -110.971(    26)      0
      7      7  H        1   2.723200(     6)      2   79.638(    17)      3  173.971(    27)      0
      8      8  H        1   2.949657(     7)      2  115.821(    18)      3  172.427(    28)      0
      9      9  H        1   3.431583(     8)      2   95.480(    19)      3  147.623(    29)      0
     10     10  H        1   2.133732(     9)      2  130.289(    20)      3  111.072(    30)      0
     11     11  C        1   2.545381(    10)      2   98.422(    21)      3  159.658(    31)      0
     12     12  C        1   1.466461(    11)      2  106.593(    22)     11  -32.130(    32)      0
     13     13  O       12   1.418132(    12)      1   87.959(    23)      2  -39.173(    33)      0
 ---------------------------------------------------------------------------------------------------
                         Z-Matrix orientation:                         
 ---------------------------------------------------------------------
 Center     Atomic      Atomic             Coordinates (Angstroms)
 Number     Number       Type             X           Y           Z
 ---------------------------------------------------------------------
      1          6           0        0.000000    0.000000    0.000000
      2          8           0        0.000000    0.000000    2.203291
      3          1           0        0.886869    0.000000    2.576440
      4          1           0       -0.192224   -0.926728    1.904284
      5          1           0        1.051875   -0.095201   -0.194178
      6          1           0       -0.362872    0.946740    0.348431
      7          1           0       -2.663968   -0.281354    0.489826
      8          1           0       -2.631998   -0.349910   -1.284767
      9          1           0       -2.884886   -1.829157   -0.327692
     10          1           0       -0.585187   -1.518769   -1.379751
     11          6           0       -2.360906   -0.875276   -0.372801
     12          6           0       -0.856097   -1.114553   -0.418780
     13          8           0       -0.307775   -1.870309    0.648588
 ---------------------------------------------------------------------
                    Distance matrix (angstroms):
                    1          2          3          4          5
     1  C    0.000000
     2  O    2.203291   0.000000
     3  H    2.724808   0.962173   0.000000
     4  H    2.126517   0.992562   1.573232   0.000000
     5  H    1.073876   2.619801   2.777159   2.577356   0.000000
     6  H    1.072099   2.113882   2.724370   2.441246   1.838906
     7  H    2.723200   3.179913   4.128143   2.920055   3.782857
     8  H    2.949657   4.383651   5.235817   4.056510   3.850349
     9  H    3.431583   4.251383   5.099601   3.611997   4.303779
    10  H    2.133732   3.935389   4.486095   3.360033   2.472266
    11  C    2.545381   3.602254   4.473497   3.144988   3.505353
    12  C    1.466461   2.974960   3.640261   2.423352   2.174829
    13  O    2.003359   2.451506   2.939701   1.574951   2.389542
                    6          7          8          9         10
     6  H    0.000000
     7  H    2.612136   0.000000
     8  H    3.081813   1.776205   0.000000
     9  H    3.810945   1.764323   1.779920   0.000000
    10  H    3.019068   3.057425   2.358960   2.547898   0.000000
    11  C    2.798581   1.090282   1.086822   1.089256   2.140377
    12  C    2.254066   2.188192   2.118593   2.152891   1.077148
    13  O    2.833531   2.846336   3.384005   2.756142   2.077185
                   11         12         13
    11  C    0.000000
    12  C    1.524407   0.000000
    13  O    2.499735   1.418132   0.000000
 Symmetry turned off by external request.
 Stoichiometry    C3H8O2
 Framework group  C1[X(C3H8O2)]
 Deg. of freedom    33
 Full point group                 C1      NOp   1
 Rotational constants (GHZ):      7.4041977      3.2013874      3.0839267
 Standard basis: 6-31++G(d,p) (6D, 7F)
 The following finite field(s) will be applied:
 An electric field of              0.0000  0.0000 -0.0025
 Integral buffers will be    131072 words long.
 Raffenetti 2 integral format.
 Two-electron integral symmetry is turned off.
   143 basis functions,   224 primitive gaussians,   143 cartesian basis functions
    21 alpha electrons       21 beta electrons
       nuclear repulsion energy       189.9616798652 Hartrees.
 NAtoms=   13 NActive=   13 NUniq=   13 SFac= 1.00D+00 NAtFMM=   50 NAOKFM=F Big=F
 One-electron integrals computed using PRISM.
 PrsmSu:  requested number of processors reduced to:  10 ShMem   1 Linda.
 NBasis=   143 RedAO= T  NBF=   143
 NBsUse=   143 1.00D-06 NBFU=   143
 The nuclear repulsion energy is now       189.8662575140 hartrees.
 Initial guess read from the read-write file.
 B after Tr=     0.000000    0.000000    0.000000
         Rot=    1.000000    0.000000    0.000000    0.000000 Ang=   0.00 deg.
 Harris functional with IExCor=  402 diagonalized for initial guess.
 ExpMin= 3.60D-02 ExpMax= 5.48D+03 ExpMxC= 8.25D+02 IAcc=3 IRadAn=         0 AccDes= 0.00D+00
 HarFok:  IExCor=  402 AccDes= 0.00D+00 IRadAn=         0 IDoV= 1
 ScaDFX=  1.000000  1.000000  1.000000  1.000000
 FoFCou: FMM=F IPFlag=           0 FMFlag=      100000 FMFlg1=           0
         NFxFlg=           0 DoJE=T BraDBF=F KetDBF=T FulRan=T
         Omega=  0.000000  0.000000  1.000000  0.000000  0.000000 ICntrl=     500 IOpCl=  0
         NMat0=    1 NMatS0=    1 NMatT0=    0 NMatD0=    1 NMtDS0=    0 NMtDT0=    0
         I1Cent=           4 NGrid=           0.
 Symmetry not used in FoFCou.
 Requested convergence on RMS density matrix=1.00D-08 within 128 cycles.
 Requested convergence on MAX density matrix=1.00D-06.
 Requested convergence on             energy=1.00D-06.
 No special actions if energy rises.
 SCF Done:  E(RB3LYP) =  -269.486680730     A.U. after   13 cycles
             Convg  =    0.3161D-08             -V/T =  2.0088
 PrsmSu:  requested number of processors reduced to:  10 ShMem   1 Linda.
 PrsmSu:  requested number of processors reduced to:  23 ShMem   1 Linda.
 Calling FoFJK, ICntrl=      2127 FMM=F ISym2X=0 I1Cent= 0 IOpClX= 0 NMat=1 NMatS=1 NMatT=0.
 CoulSu:  requested number of processors reduced to:  16 ShMem   1 Linda.
 -------------------------------------------------------------------
 Center     Atomic                   Forces (Hartrees/Bohr)
 Number     Number              X              Y              Z
 -------------------------------------------------------------------
      1        6          -0.002234743   -0.014598857   -0.013202828
      2        8          -0.000670835    0.011765028    0.019753216
      3        1           0.004077858   -0.000170973    0.003825909
      4        1          -0.001283316   -0.007651841    0.000152387
      5        1           0.006758286    0.000756773   -0.002194472
      6        1          -0.003283405    0.004139724    0.003106934
      7        1           0.000586065    0.001193641    0.002624472
      8        1          -0.006579557    0.003417863   -0.004630586
      9        1          -0.001538669   -0.002529959   -0.001527544
     10        1           0.004623289   -0.007703545   -0.013964738
     11        6           0.006007375   -0.001460769    0.001139904
     12        6          -0.004021113    0.001005085    0.014711556
     13        8          -0.002441237    0.011837830   -0.009794211
 -------------------------------------------------------------------
 Cartesian Forces:  Max     0.019753216 RMS     0.007140887
 -----------------------------------------------------------------------------------------------
                       Internal Coordinate Forces (Hartree/Bohr or radian)
  Cent   Atom   N1       Length/X         N2         Alpha/Y        N3         Beta/Z          J
 -----------------------------------------------------------------------------------------------
      1  C 
      2  O        1   0.023732(     1)
      3  H        2   0.005242(     2)      1   0.003536(    13)
      4  H        2   0.007347(     3)      1   0.004653(    14)      3   0.000532(    24)     0
      5  H        1   0.006950(     4)      2   0.001935(    15)      3  -0.002720(    25)     0
      6  H        1   0.005777(     5)      2  -0.002634(    16)      3  -0.003036(    26)     0
      7  H        1  -0.000225(     6)      2  -0.013941(    17)      3   0.005697(    27)     0
      8  H        1   0.007482(     7)      2   0.008493(    18)      3   0.021350(    28)     0
      9  H        1   0.002788(     8)      2   0.008217(    19)      3  -0.008474(    29)     0
     10  H        1   0.013245(     9)      2   0.028543(    20)      3  -0.021788(    30)     0
     11  C        1  -0.005237(    10)      2  -0.001813(    21)      3   0.009155(    31)     0
     12  C        1  -0.007393(    11)      2  -0.019140(    22)     11   0.025609(    32)     0
     13  O       12  -0.014624(    12)      1  -0.014201(    23)      2  -0.000705(    33)     0
 -----------------------------------------------------------------------------------------------
 Internal  Forces:  Max     0.028543108 RMS     0.012083273

 GradGradGradGradGradGradGradGradGradGradGradGradGradGradGradGradGradGrad
 Berny optimization.
 Search for a saddle point.
 Step number   2 out of a maximum of   42
 All quantities printed in internal units (Hartrees-Bohrs-Radians)
 Swaping is turned off.
 Update second derivatives using D2CorN and points    1    2
 ITU=  0  0
     Eigenvalues ---   -0.11262  -0.02695   0.00224   0.01027   0.01292
     Eigenvalues ---    0.03439   0.06052   0.06264   0.07491   0.09925
     Eigenvalues ---    0.12957   0.14834   0.16173   0.23230   0.27150
     Eigenvalues ---    0.29947   0.32333   0.39475   0.40304   0.40480
     Eigenvalues ---    0.45663   0.55937   0.57511   0.78468   1.22119
     Eigenvalues ---    2.49228   3.22173   3.76892   6.35780   7.50398
     Eigenvalues ---   18.73285  22.04891
 Eigenvectors required to have negative eigenvalues:
                          D4        D5        A11       A10       A7
   1                    0.40588  -0.37246   0.34885  -0.31606  -0.31072
                          A4        A6        A8        B2        A5
   1                    0.26257   0.26232  -0.26188   0.25111   0.18221
 RFO step:  Lambda0=2.118296246D-03 Lambda=-2.88699062D-02.
 Linear search not attempted -- option 19 set.
 Maximum step size (   0.300) exceeded in Quadratic search.
    -- Step size scaled by   0.390
 Variable       Old X    -DE/DX   Delta X   Delta X   Delta X     New X
                                 (Linear)    (Quad)   (Total)
    B1        1.81824   0.00524   0.00000   0.00249   0.00249   1.82073
    B2        1.87567   0.00735   0.00000  -0.00636  -0.00636   1.86931
    B3        2.02933   0.00695   0.00000   0.00462   0.00462   2.03395
    B4        2.02597   0.00578   0.00000   0.00185   0.00185   2.02782
    B5        5.14610  -0.00022   0.00000  -0.09788  -0.09788   5.04822
    B6        5.57404   0.00748   0.00000   0.16005   0.16005   5.73409
    B7        6.48475   0.00279   0.00000  -0.02797  -0.02797   6.45679
    B8        4.03217   0.01325   0.00000   0.04878   0.04878   4.08095
    B9        4.81007  -0.00524   0.00000   0.00240   0.00240   4.81247
   B10        2.77121  -0.00739   0.00000  -0.00996  -0.00996   2.76125
   B11        2.67988  -0.01462   0.00000  -0.00905  -0.00905   2.67083
    A1        1.96906   0.00354   0.00000   0.04151   0.04151   2.01057
    A2        1.26480   0.00465   0.00000  -0.00052  -0.00052   1.26428
    A3        1.75262   0.00194   0.00000   0.01426   0.01426   1.76687
    A4        1.23979  -0.00263   0.00000  -0.05432  -0.05432   1.18547
    A5        1.38994  -0.01394   0.00000   0.09217   0.09217   1.48211
    A6        2.02146   0.00849   0.00000   0.09765   0.09765   2.11911
    A7        1.66644   0.00822   0.00000  -0.01956  -0.01956   1.64687
    A8        2.27396   0.02854   0.00000   0.02643   0.02643   2.30040
    A9        1.71779  -0.00181   0.00000   0.05281   0.05281   1.77060
   A10        1.86040  -0.01914   0.00000   0.05671   0.05671   1.91711
   A11        1.53517  -0.01420   0.00000  -0.07980  -0.07980   1.45537
    D1       -1.77532   0.00053   0.00000  -0.00764  -0.00764  -1.78296
    D2        0.09026  -0.00272   0.00000  -0.02592  -0.02592   0.06435
    D3       -1.93681  -0.00304   0.00000  -0.02309  -0.02309  -1.95991
    D4        3.03637   0.00570   0.00000   0.09221   0.09221   3.12857
    D5        3.00942   0.02135   0.00000  -0.06496  -0.06496   2.94446
    D6        2.57651  -0.00847   0.00000   0.00008   0.00008   2.57660
    D7        1.93857  -0.02179   0.00000  -0.02428  -0.02428   1.91429
    D8        2.78656   0.00915   0.00000   0.00783   0.00783   2.79440
    D9       -0.56078   0.02561   0.00000   0.00215   0.00215  -0.55863
   D10       -0.68370  -0.00070   0.00000   0.01951   0.01951  -0.66420
         Item               Value     Threshold  Converged?
 Maximum Force            0.028543     0.000450     NO 
 RMS     Force            0.011531     0.000300     NO 
 Maximum Displacement     0.160048     0.001800     NO 
 RMS     Displacement     0.053033     0.001200     NO 
 Predicted change in Energy=-3.438358D-03
 GradGradGradGradGradGradGradGradGradGradGradGradGradGradGradGradGradGrad

 ---------------------------------------------------------------------------------------------------
                            Z-MATRIX (ANGSTROMS AND DEGREES)
   CD    Cent   Atom    N1       Length/X        N2       Alpha/Y        N3        Beta/Z          J
 ---------------------------------------------------------------------------------------------------
      1      1  C 
      2      2  O        1   2.203291(     1)
      3      3  H        2   0.963491(     2)      1  115.197(    13)
      4      4  H        2   0.989195(     3)      1   72.438(    14)      3 -102.156(    24)      0
      5      5  H        1   1.076322(     4)      2  101.234(    15)      3    3.687(    25)      0
      6      6  H        1   1.073078(     5)      2   67.922(    16)      3 -112.294(    26)      0
      7      7  H        1   2.671404(     6)      2   84.919(    17)      3  179.254(    27)      0
      8      8  H        1   3.034351(     7)      2  121.416(    18)      3  168.705(    28)      0
      9      9  H        1   3.416784(     8)      2   94.359(    19)      3  147.628(    29)      0
     10     10  H        1   2.159544(     9)      2  131.803(    20)      3  109.681(    30)      0
     11     11  C        1   2.546651(    10)      2  101.448(    21)      3  160.107(    31)      0
     12     12  C        1   1.461188(    11)      2  109.842(    22)     11  -32.007(    32)      0
     13     13  O       12   1.413341(    12)      1   83.386(    23)      2  -38.056(    33)      0
 ---------------------------------------------------------------------------------------------------
                         Z-Matrix orientation:                         
 ---------------------------------------------------------------------
 Center     Atomic      Atomic             Coordinates (Angstroms)
 Number     Number       Type             X           Y           Z
 ---------------------------------------------------------------------
      1          6           0        0.000000    0.000000    0.000000
      2          8           0        0.000000    0.000000    2.203291
      3          1           0        0.871812    0.000000    2.613485
      4          1           0       -0.198589   -0.921943    1.904809
      5          1           0        1.053513   -0.067882   -0.209692
      6          1           0       -0.377238    0.920060    0.403331
      7          1           0       -2.660680   -0.034638    0.236606
      8          1           0       -2.539376   -0.507170   -1.581656
      9          1           0       -2.877435   -1.824099   -0.259693
     10          1           0       -0.542155   -1.515769   -1.439495
     11          6           0       -2.347053   -0.849287   -0.505455
     12          6           0       -0.848079   -1.081590   -0.495979
     13          8           0       -0.304107   -1.790385    0.599118
 ---------------------------------------------------------------------
                    Distance matrix (angstroms):
                    1          2          3          4          5
     1  C    0.000000
     2  O    2.203291   0.000000
     3  H    2.755061   0.963491   0.000000
     4  H    2.125491   0.989195   1.580493   0.000000
     5  H    1.076322   2.633816   2.829833   2.601594   0.000000
     6  H    1.073078   2.056374   2.700263   2.383134   1.843605
     7  H    2.671404   3.308816   4.257846   3.103563   3.741058
     8  H    3.034351   4.586008   5.430712   4.219805   3.870932
     9  H    3.416784   4.203958   5.063531   3.560221   4.305712
    10  H    2.159544   3.982634   4.552308   3.413947   2.480916
    11  C    2.546651   3.683375   4.561817   3.229636   3.501703
    12  C    1.461188   3.029048   3.714382   2.492209   2.173848
    13  O    1.912303   2.423083   2.940398   1.571672   2.337589
                    6          7          8          9         10
     6  H    0.000000
     7  H    2.480595   0.000000
     8  H    3.263740   1.882572   0.000000
     9  H    3.771074   1.869617   1.896357   0.000000
    10  H    3.058835   3.080781   2.241958   2.634489   0.000000
    11  C    2.799403   1.145717   1.145530   1.136645   2.138758
    12  C    2.244339   2.217727   2.090248   2.173808   1.082738
    13  O    2.718491   2.960996   3.376217   2.713063   2.070754
                   11         12         13
    11  C    0.000000
    12  C    1.516898   0.000000
    13  O    2.505868   1.413341   0.000000
 Symmetry turned off by external request.
 Stoichiometry    C3H8O2
 Framework group  C1[X(C3H8O2)]
 Deg. of freedom    33
 Full point group                 C1      NOp   1
 Rotational constants (GHZ):      7.8383053      3.1220421      3.0176674
 Standard basis: 6-31++G(d,p) (6D, 7F)
 The following finite field(s) will be applied:
 An electric field of              0.0000  0.0000 -0.0025
 Integral buffers will be    131072 words long.
 Raffenetti 2 integral format.
 Two-electron integral symmetry is turned off.
   143 basis functions,   224 primitive gaussians,   143 cartesian basis functions
    21 alpha electrons       21 beta electrons
       nuclear repulsion energy       189.9623831638 Hartrees.
 NAtoms=   13 NActive=   13 NUniq=   13 SFac= 1.00D+00 NAtFMM=   50 NAOKFM=F Big=F
 One-electron integrals computed using PRISM.
 PrsmSu:  requested number of processors reduced to:  10 ShMem   1 Linda.
 NBasis=   143 RedAO= T  NBF=   143
 NBsUse=   143 1.00D-06 NBFU=   143
 The nuclear repulsion energy is now       189.8769752994 hartrees.
 Initial guess read from the read-write file.
 B after Tr=     0.000000    0.000000    0.000000
         Rot=    1.000000    0.000000    0.000000    0.000000 Ang=   0.00 deg.
 Harris functional with IExCor=  402 diagonalized for initial guess.
 ExpMin= 3.60D-02 ExpMax= 5.48D+03 ExpMxC= 8.25D+02 IAcc=3 IRadAn=         0 AccDes= 0.00D+00
 HarFok:  IExCor=  402 AccDes= 0.00D+00 IRadAn=         0 IDoV= 1
 ScaDFX=  1.000000  1.000000  1.000000  1.000000
 FoFCou: FMM=F IPFlag=           0 FMFlag=      100000 FMFlg1=           0
         NFxFlg=           0 DoJE=T BraDBF=F KetDBF=T FulRan=T
         Omega=  0.000000  0.000000  1.000000  0.000000  0.000000 ICntrl=     500 IOpCl=  0
         NMat0=    1 NMatS0=    1 NMatT0=    0 NMatD0=    1 NMtDS0=    0 NMtDT0=    0
         I1Cent=           4 NGrid=           0.
 Symmetry not used in FoFCou.
 Requested convergence on RMS density matrix=1.00D-08 within 128 cycles.
 Requested convergence on MAX density matrix=1.00D-06.
 Requested convergence on             energy=1.00D-06.
 No special actions if energy rises.
 SCF Done:  E(RB3LYP) =  -269.483845994     A.U. after   12 cycles
             Convg  =    0.9917D-08             -V/T =  2.0093
 PrsmSu:  requested number of processors reduced to:  10 ShMem   1 Linda.
 PrsmSu:  requested number of processors reduced to:  23 ShMem   1 Linda.
 Calling FoFJK, ICntrl=      2127 FMM=F ISym2X=0 I1Cent= 0 IOpClX= 0 NMat=1 NMatS=1 NMatT=0.
 CoulSu:  requested number of processors reduced to:  16 ShMem   1 Linda.
 -------------------------------------------------------------------
 Center     Atomic                   Forces (Hartrees/Bohr)
 Number     Number              X              Y              Z
 -------------------------------------------------------------------
      1        6           0.000945703   -0.020665530   -0.021583587
      2        8           0.002060983    0.010808487    0.032067153
      3        1           0.001588054   -0.001088786    0.004086646
      4        1           0.000345712   -0.001749997    0.002925242
      5        1           0.004713975    0.001934220   -0.001641357
      6        1          -0.003478168    0.001118774    0.002649955
      7        1           0.005417149   -0.022344554   -0.018785674
      8        1          -0.008750124   -0.007203143    0.027778102
      9        1           0.008282914    0.023342768   -0.008919921
     10        1           0.004289673   -0.005318611   -0.009551156
     11        6          -0.013246733    0.007857694   -0.005276302
     12        6          -0.001802667   -0.001208934    0.004563563
     13        8          -0.000366470    0.014517612   -0.008312664
 -------------------------------------------------------------------
 Cartesian Forces:  Max     0.032067153 RMS     0.011665772
 -----------------------------------------------------------------------------------------------
                       Internal Coordinate Forces (Hartree/Bohr or radian)
  Cent   Atom   N1       Length/X         N2         Alpha/Y        N3         Beta/Z          J
 -----------------------------------------------------------------------------------------------
      1  C 
      2  O        1   0.039079(     1)
      3  H        2   0.003177(     2)      1   0.005502(    13)
      4  H        2   0.000679(     3)      1   0.006137(    14)      3   0.001259(    24)     0
      5  H        1   0.004812(     4)      2   0.001460(    15)      3  -0.004455(    25)     0
      6  H        1   0.003178(     5)      2  -0.003185(    16)      3  -0.005250(    26)     0
      7  H        1  -0.006770(     6)      2   0.092170(    17)      3  -0.112702(    27)     0
      8  H        1  -0.005953(     7)      2  -0.165795(    18)      3  -0.026180(    28)     0
      9  H        1  -0.018759(     8)      2   0.066994(    19)      3   0.098376(    29)     0
     10  H        1   0.009023(     9)      2   0.019363(    20)      3  -0.017736(    30)     0
     11  C        1   0.010635(    10)      2   0.015543(    21)      3   0.067441(    31)     0
     12  C        1  -0.007320(    11)      2  -0.001386(    22)     11   0.011330(    32)     0
     13  O       12  -0.013863(    12)      1  -0.025028(    23)      2   0.000312(    33)     0
 -----------------------------------------------------------------------------------------------
 Internal  Forces:  Max     0.165795428 RMS     0.046822136

 GradGradGradGradGradGradGradGradGradGradGradGradGradGradGradGradGradGrad
 Berny optimization.
 Search for a saddle point.
 Step number   3 out of a maximum of   42
 All quantities printed in internal units (Hartrees-Bohrs-Radians)
 Swaping is turned off.
 Update second derivatives using D2CorN and points    1    2    3
 ITU=  0  0  0
     Eigenvalues ---   -0.22872   0.00155   0.01018   0.01278   0.02887
     Eigenvalues ---    0.03807   0.06145   0.07490   0.09595   0.12334
     Eigenvalues ---    0.14701   0.16170   0.22466   0.24237   0.28334
     Eigenvalues ---    0.30129   0.32412   0.39583   0.40304   0.40693
     Eigenvalues ---    0.45761   0.55954   0.57541   0.78796   1.22214
     Eigenvalues ---    2.49238   3.22247   3.76916   6.35870   7.53988
     Eigenvalues ---   18.73808  22.04892
 Eigenvectors required to have negative eigenvalues:
                          A11       A10       B6        A4        A7
   1                    0.43621  -0.39266  -0.31158   0.29909  -0.28772
                          A8        D5        D4        B2        B8
   1                   -0.26105  -0.23605   0.22113   0.21799  -0.19282
 RFO step:  Lambda0=2.765818302D-02 Lambda=-3.19643177D-02.
 Linear search not attempted -- option 19 set.
 Maximum step size (   0.300) exceeded in Quadratic search.
    -- Step size scaled by   0.674
 Variable       Old X    -DE/DX   Delta X   Delta X   Delta X     New X
                                 (Linear)    (Quad)   (Total)
    B1        1.82073   0.00318   0.00000   0.00562   0.00562   1.82635
    B2        1.86931   0.00068   0.00000   0.09792   0.09792   1.96722
    B3        2.03395   0.00481   0.00000   0.00925   0.00925   2.04321
    B4        2.02782   0.00318   0.00000   0.01271   0.01271   2.04053
    B5        5.04822  -0.00677   0.00000   0.06832   0.06832   5.11654
    B6        5.73409  -0.00595   0.00000  -0.08599  -0.08599   5.64810
    B7        6.45679  -0.01876   0.00000   0.02500   0.02500   6.48179
    B8        4.08095   0.00902   0.00000  -0.04992  -0.04992   4.03102
    B9        4.81247   0.01064   0.00000  -0.00252  -0.00252   4.80996
   B10        2.76125  -0.00732   0.00000   0.02240   0.02240   2.78364
   B11        2.67083  -0.01386   0.00000  -0.02246  -0.02246   2.64836
    A1        2.01057   0.00550   0.00000  -0.04457  -0.04457   1.96600
    A2        1.26428   0.00614   0.00000  -0.01029  -0.01029   1.25399
    A3        1.76687   0.00146   0.00000  -0.03504  -0.03504   1.73184
    A4        1.18547  -0.00318   0.00000   0.11997   0.11997   1.30544
    A5        1.48211   0.09217   0.00000  -0.05923  -0.05923   1.42288
    A6        2.11911  -0.16580   0.00000  -0.06299  -0.06299   2.05612
    A7        1.64687   0.06699   0.00000   0.00075   0.00075   1.64762
    A8        2.30040   0.01936   0.00000  -0.06895  -0.06895   2.23145
    A9        1.77060   0.01554   0.00000  -0.04159  -0.04159   1.72901
   A10        1.91711  -0.00139   0.00000  -0.09524  -0.09524   1.82187
   A11        1.45537  -0.02503   0.00000   0.13151   0.13151   1.58687
    D1       -1.78296   0.00126   0.00000  -0.00798  -0.00798  -1.79094
    D2        0.06435  -0.00446   0.00000   0.02442   0.02442   0.08876
    D3       -1.95991  -0.00525   0.00000   0.01913   0.01913  -1.94077
    D4        3.12857  -0.11270   0.00000  -0.04616  -0.04616   3.08241
    D5        2.94446  -0.02618   0.00000   0.03335   0.03335   2.97781
    D6        2.57660   0.09838   0.00000   0.00334   0.00334   2.57994
    D7        1.91429  -0.01774   0.00000  -0.01615  -0.01615   1.89815
    D8        2.79440   0.06744   0.00000  -0.00405  -0.00405   2.79035
    D9       -0.55863   0.01133   0.00000  -0.01170  -0.01170  -0.57033
   D10       -0.66420   0.00031   0.00000   0.03478   0.03478  -0.62942
         Item               Value     Threshold  Converged?
 Maximum Force            0.165795     0.000450     NO 
 RMS     Force            0.047044     0.000300     NO 
 Maximum Displacement     0.131507     0.001800     NO 
 RMS     Displacement     0.053033     0.001200     NO 
 Predicted change in Energy=-1.900863D-03
 GradGradGradGradGradGradGradGradGradGradGradGradGradGradGradGradGradGrad

 ---------------------------------------------------------------------------------------------------
                            Z-MATRIX (ANGSTROMS AND DEGREES)
   CD    Cent   Atom    N1       Length/X        N2       Alpha/Y        N3        Beta/Z          J
 ---------------------------------------------------------------------------------------------------
      1      1  C 
      2      2  O        1   2.203291(     1)
      3      3  H        2   0.966464(     2)      1  112.643(    13)
      4      4  H        2   1.041010(     3)      1   71.848(    14)      3 -102.613(    24)      0
      5      5  H        1   1.081219(     4)      2   99.227(    15)      3    5.086(    25)      0
      6      6  H        1   1.079804(     5)      2   74.796(    16)      3 -111.198(    26)      0
      7      7  H        1   2.707556(     6)      2   81.525(    17)      3  176.609(    27)      0
      8      8  H        1   2.988846(     7)      2  117.807(    18)      3  170.616(    28)      0
      9      9  H        1   3.430016(     8)      2   94.402(    19)      3  147.819(    29)      0
     10     10  H        1   2.133126(     9)      2  127.853(    20)      3  108.756(    30)      0
     11     11  C        1   2.545320(    10)      2   99.065(    21)      3  159.875(    31)      0
     12     12  C        1   1.473039(    11)      2  104.385(    22)     11  -32.677(    32)      0
     13     13  O       12   1.401454(    12)      1   90.921(    23)      2  -36.063(    33)      0
 ---------------------------------------------------------------------------------------------------
                         Z-Matrix orientation:                         
 ---------------------------------------------------------------------
 Center     Atomic      Atomic             Coordinates (Angstroms)
 Number     Number       Type             X           Y           Z
 ---------------------------------------------------------------------
      1          6           0        0.000000    0.000000    0.000000
      2          8           0        0.000000    0.000000    2.203291
      3          1           0        0.891968    0.000000    2.575375
      4          1           0       -0.216008   -0.965332    1.878981
      5          1           0        1.063027   -0.094605   -0.173370
      6          1           0       -0.376786    0.971502    0.283185
      7          1           0       -2.673304   -0.158396    0.399020
      8          1           0       -2.608330   -0.431060   -1.394277
      9          1           0       -2.894514   -1.821399   -0.263257
     10          1           0       -0.541561   -1.594858   -1.308956
     11          6           0       -2.360067   -0.864821   -0.401030
     12          6           0       -0.862629   -1.136566   -0.365969
     13          8           0       -0.388893   -1.876824    0.725665
 ---------------------------------------------------------------------
                    Distance matrix (angstroms):
                    1          2          3          4          5
     1  C    0.000000
     2  O    2.203291   0.000000
     3  H    2.725465   0.966464   0.000000
     4  H    2.123463   1.041010   1.626174   0.000000
     5  H    1.081219   2.605281   2.755686   2.570261   0.000000
     6  H    1.079804   2.184626   2.794224   2.514705   1.848807
     7  H    2.707556   3.229092   4.180044   2.979888   3.780459
     8  H    2.988846   4.464492   5.309993   4.089360   3.883642
     9  H    3.430016   4.216581   5.070776   3.535028   4.318799
    10  H    2.133126   3.895220   4.436959   3.265766   2.472857
    11  C    2.545320   3.619436   4.492508   3.131380   3.516054
    12  C    1.473039   2.938878   3.608586   2.342486   2.197938
    13  O    2.049462   2.420141   2.929931   1.480150   2.468327
                    6          7          8          9         10
     6  H    0.000000
     7  H    2.562047   0.000000
     8  H    3.124235   1.815070   0.000000
     9  H    3.799717   1.803641   1.814979   0.000000
    10  H    3.024610   3.086249   2.373445   2.584800   0.000000
    11  C    2.788124   1.112310   1.111900   1.104380   2.159687
    12  C    2.258627   2.195579   2.145373   2.146648   1.096513
    13  O    2.882515   2.877190   3.392682   2.694286   2.059732
                   11         12         13
    11  C    0.000000
    12  C    1.522299   0.000000
    13  O    2.485783   1.401454   0.000000
 Symmetry turned off by external request.
 Stoichiometry    C3H8O2
 Framework group  C1[X(C3H8O2)]
 Deg. of freedom    33
 Full point group                 C1      NOp   1
 Rotational constants (GHZ):      7.4522024      3.2048821      3.0836708
 Standard basis: 6-31++G(d,p) (6D, 7F)
 The following finite field(s) will be applied:
 An electric field of              0.0000  0.0000 -0.0025
 Integral buffers will be    131072 words long.
 Raffenetti 2 integral format.
 Two-electron integral symmetry is turned off.
   143 basis functions,   224 primitive gaussians,   143 cartesian basis functions
    21 alpha electrons       21 beta electrons
       nuclear repulsion energy       189.6920579157 Hartrees.
 NAtoms=   13 NActive=   13 NUniq=   13 SFac= 1.00D+00 NAtFMM=   50 NAOKFM=F Big=F
 One-electron integrals computed using PRISM.
 PrsmSu:  requested number of processors reduced to:  10 ShMem   1 Linda.
 NBasis=   143 RedAO= T  NBF=   143
 NBsUse=   143 1.00D-06 NBFU=   143
 The nuclear repulsion energy is now       189.5936676369 hartrees.
 Initial guess read from the read-write file.
 B after Tr=     0.000000    0.000000    0.000000
         Rot=    1.000000    0.000000    0.000000    0.000000 Ang=   0.00 deg.
 Harris functional with IExCor=  402 diagonalized for initial guess.
 ExpMin= 3.60D-02 ExpMax= 5.48D+03 ExpMxC= 8.25D+02 IAcc=3 IRadAn=         0 AccDes= 0.00D+00
 HarFok:  IExCor=  402 AccDes= 0.00D+00 IRadAn=         0 IDoV= 1
 ScaDFX=  1.000000  1.000000  1.000000  1.000000
 FoFCou: FMM=F IPFlag=           0 FMFlag=      100000 FMFlg1=           0
         NFxFlg=           0 DoJE=T BraDBF=F KetDBF=T FulRan=T
         Omega=  0.000000  0.000000  1.000000  0.000000  0.000000 ICntrl=     500 IOpCl=  0
         NMat0=    1 NMatS0=    1 NMatT0=    0 NMatD0=    1 NMtDS0=    0 NMtDT0=    0
         I1Cent=           4 NGrid=           0.
 Symmetry not used in FoFCou.
 Requested convergence on RMS density matrix=1.00D-08 within 128 cycles.
 Requested convergence on MAX density matrix=1.00D-06.
 Requested convergence on             energy=1.00D-06.
 No special actions if energy rises.
 SCF Done:  E(RB3LYP) =  -269.485055384     A.U. after   13 cycles
             Convg  =    0.7052D-08             -V/T =  2.0094
 PrsmSu:  requested number of processors reduced to:  10 ShMem   1 Linda.
 PrsmSu:  requested number of processors reduced to:  23 ShMem   1 Linda.
 Calling FoFJK, ICntrl=      2127 FMM=F ISym2X=0 I1Cent= 0 IOpClX= 0 NMat=1 NMatS=1 NMatT=0.
 CoulSu:  requested number of processors reduced to:  16 ShMem   1 Linda.
 -------------------------------------------------------------------
 Center     Atomic                   Forces (Hartrees/Bohr)
 Number     Number              X              Y              Z
 -------------------------------------------------------------------
      1        6          -0.000957039   -0.004431790   -0.005489407
      2        8          -0.001991659   -0.002881381    0.005176049
      3        1           0.001006483   -0.000552364    0.001320418
      4        1           0.001914146    0.008264033    0.002841143
      5        1           0.001764422   -0.000333884   -0.000103981
      6        1          -0.000593113    0.001425550    0.001828358
      7        1           0.002687676   -0.008148053   -0.007340543
      8        1          -0.002481753   -0.003010335    0.009195388
      9        1           0.001421963    0.006956755   -0.002254001
     10        1           0.000072256   -0.001944757   -0.004785896
     11        6          -0.005047463    0.003599605   -0.001463973
     12        6           0.002900242    0.001458782    0.002168048
     13        8          -0.000696161   -0.000402162   -0.001091602
 -------------------------------------------------------------------
 Cartesian Forces:  Max     0.009195388 RMS     0.003751668
 -----------------------------------------------------------------------------------------------
                       Internal Coordinate Forces (Hartree/Bohr or radian)
  Cent   Atom   N1       Length/X         N2         Alpha/Y        N3         Beta/Z          J
 -----------------------------------------------------------------------------------------------
      1  C 
      2  O        1   0.009338(     1)
      3  H        2   0.001437(     2)      1   0.001518(    13)
      4  H        2  -0.008946(     3)      1   0.000112(    14)      3   0.000118(    24)     0
      5  H        1   0.001781(     4)      2  -0.000376(    15)      3   0.000355(    25)     0
      6  H        1   0.001969(     5)      2  -0.002774(    16)      3  -0.000074(    26)     0
      7  H        1  -0.003259(     6)      2   0.035488(    17)      3  -0.041967(    27)     0
      8  H        1  -0.001690(     7)      2  -0.053684(    18)      3  -0.012816(    28)     0
      9  H        1  -0.004721(     8)      2   0.017009(    19)      3   0.033158(    29)     0
     10  H        1   0.004372(     9)      2   0.010735(    20)      3  -0.002208(    30)     0
     11  C        1   0.003688(    10)      2   0.004301(    21)      3   0.022625(    31)     0
     12  C        1  -0.002373(    11)      2   0.000756(    22)     11  -0.001678(    32)     0
     13  O       12  -0.000873(    12)      1   0.002657(    23)      2  -0.000695(    33)     0
 -----------------------------------------------------------------------------------------------
 Internal  Forces:  Max     0.053683785 RMS     0.015934107

 GradGradGradGradGradGradGradGradGradGradGradGradGradGradGradGradGradGrad
 Berny optimization.
 Search for a saddle point.
 Step number   4 out of a maximum of   42
 All quantities printed in internal units (Hartrees-Bohrs-Radians)
 Swaping is turned off.
 Update second derivatives using D2CorN and points    1    2    3    4
 ITU=  0  0  0  0
     Eigenvalues ---   -0.20969  -0.00005   0.01017   0.01081   0.01430
     Eigenvalues ---    0.03596   0.06162   0.07556   0.10607   0.12104
     Eigenvalues ---    0.14744   0.16169   0.21582   0.24462   0.28714
     Eigenvalues ---    0.30163   0.33081   0.39609   0.40248   0.40656
     Eigenvalues ---    0.46070   0.55937   0.58247   0.78825   1.22141
     Eigenvalues ---    2.49253   3.22250   3.76996   6.35726   7.55003
     Eigenvalues ---   18.73858  22.04892
 Eigenvectors required to have negative eigenvalues:
                          A11       B6        A10       A7        A4
   1                    0.42705  -0.41011  -0.38400  -0.28846   0.24869
                          A8        B5        D5        A9        B8
   1                   -0.22567   0.22058  -0.21642  -0.19967  -0.19855
 RFO step:  Lambda0=2.399962324D-03 Lambda=-4.15853365D-03.
 Linear search not attempted -- option 19 set.
 Variable       Old X    -DE/DX   Delta X   Delta X   Delta X     New X
                                 (Linear)    (Quad)   (Total)
    B1        1.82635   0.00144   0.00000   0.00234   0.00234   1.82869
    B2        1.96722  -0.00895   0.00000  -0.03566  -0.03566   1.93157
    B3        2.04321   0.00178   0.00000   0.00374   0.00374   2.04695
    B4        2.04053   0.00197   0.00000   0.00464   0.00464   2.04517
    B5        5.11654  -0.00326   0.00000   0.05232   0.05232   5.16885
    B6        5.64810  -0.00169   0.00000  -0.07496  -0.07496   5.57314
    B7        6.48179  -0.00472   0.00000   0.02555   0.02555   6.50734
    B8        4.03102   0.00437   0.00000  -0.01020  -0.01020   4.02083
    B9        4.80996   0.00369   0.00000   0.00151   0.00151   4.81147
   B10        2.78364  -0.00237   0.00000   0.00272   0.00272   2.78637
   B11        2.64836  -0.00087   0.00000  -0.01398  -0.01398   2.63439
    A1        1.96600   0.00152   0.00000  -0.01098  -0.01098   1.95502
    A2        1.25399   0.00011   0.00000   0.01542   0.01542   1.26941
    A3        1.73184  -0.00038   0.00000   0.01822   0.01822   1.75006
    A4        1.30544  -0.00277   0.00000   0.00035   0.00035   1.30579
    A5        1.42288   0.03549   0.00000  -0.08329  -0.08329   1.33960
    A6        2.05612  -0.05368   0.00000  -0.08061  -0.08061   1.97551
    A7        1.64762   0.01701   0.00000  -0.03421  -0.03421   1.61341
    A8        2.23145   0.01074   0.00000   0.00092   0.00092   2.23237
    A9        1.72901   0.00430   0.00000  -0.06567  -0.06567   1.66334
   A10        1.82187   0.00076   0.00000  -0.04028  -0.04028   1.78159
   A11        1.58687   0.00266   0.00000   0.03515   0.03515   1.62203
    D1       -1.79094   0.00012   0.00000   0.01266   0.01266  -1.77827
    D2        0.08876   0.00036   0.00000   0.04477   0.04477   0.13353
    D3       -1.94077  -0.00007   0.00000   0.04605   0.04605  -1.89473
    D4        3.08241  -0.04197   0.00000  -0.02070  -0.02070   3.06171
    D5        2.97781  -0.01282   0.00000   0.04173   0.04173   3.01954
    D6        2.57994   0.03316   0.00000   0.01653   0.01653   2.59646
    D7        1.89815  -0.00221   0.00000   0.08021   0.08021   1.97835
    D8        2.79035   0.02263   0.00000   0.01341   0.01341   2.80376
    D9       -0.57033  -0.00168   0.00000   0.00612   0.00612  -0.56421
   D10       -0.62942  -0.00069   0.00000  -0.07032  -0.07032  -0.69973
         Item               Value     Threshold  Converged?
 Maximum Force            0.053684     0.000450     NO 
 RMS     Force            0.016097     0.000300     NO 
 Maximum Displacement     0.083287     0.001800     NO 
 RMS     Displacement     0.040086     0.001200     NO 
 Predicted change in Energy=-9.490925D-04
 GradGradGradGradGradGradGradGradGradGradGradGradGradGradGradGradGradGrad

 ---------------------------------------------------------------------------------------------------
                            Z-MATRIX (ANGSTROMS AND DEGREES)
   CD    Cent   Atom    N1       Length/X        N2       Alpha/Y        N3        Beta/Z          J
 ---------------------------------------------------------------------------------------------------
      1      1  C 
      2      2  O        1   2.203291(     1)
      3      3  H        2   0.967703(     2)      1  112.014(    13)
      4      4  H        2   1.022140(     3)      1   72.732(    14)      3 -101.888(    24)      0
      5      5  H        1   1.083199(     4)      2  100.271(    15)      3    7.651(    25)      0
      6      6  H        1   1.082258(     5)      2   74.816(    16)      3 -108.560(    26)      0
      7      7  H        1   2.735240(     6)      2   76.753(    17)      3  175.423(    27)      0
      8      8  H        1   2.949180(     7)      2  113.188(    18)      3  173.007(    28)      0
      9      9  H        1   3.443536(     8)      2   92.441(    19)      3  148.766(    29)      0
     10     10  H        1   2.127731(     9)      2  127.905(    20)      3  113.351(    30)      0
     11     11  C        1   2.546118(    10)      2   95.303(    21)      3  160.644(    31)      0
     12     12  C        1   1.474481(    11)      2  102.078(    22)     11  -32.327(    32)      0
     13     13  O       12   1.394057(    12)      1   92.935(    23)      2  -40.092(    33)      0
 ---------------------------------------------------------------------------------------------------
                         Z-Matrix orientation:                         
 ---------------------------------------------------------------------
 Center     Atomic      Atomic             Coordinates (Angstroms)
 Number     Number       Type             X           Y           Z
 ---------------------------------------------------------------------
[...]
 Vib (V=0)    3  0.123411D+01          0.091354          0.210351
 Vib (V=0)    4  0.117431D+01          0.069781          0.160677
 Vib (V=0)    5  0.115148D+01          0.061255          0.141044
 Vib (V=0)    6  0.111969D+01          0.049096          0.113047
 Vib (V=0)    7  0.109116D+01          0.037887          0.087237
 Vib (V=0)    8  0.106895D+01          0.028957          0.066676
 Electronic      0.100000D+01          0.000000          0.000000
 Translational   0.260690D+08          7.416125         17.076259
 Rotational      0.100907D+06          5.003923         11.521958
 -------------------------------------------------------------------
 Center     Atomic                   Forces (Hartrees/Bohr)
 Number     Number              X              Y              Z
 -------------------------------------------------------------------
      1        6           0.000459068    0.000717103    0.003338118
      2        8          -0.000384103   -0.000633292   -0.003381664
      3        1          -0.000000477   -0.000065921   -0.000012401
      4        1           0.000004782    0.000018318    0.000012190
      5        1          -0.000006997   -0.000004170    0.000002946
      6        1           0.000007118   -0.000004876   -0.000006409
      7        1          -0.000016866   -0.000038092   -0.000053972
      8        1           0.000017365   -0.000050523    0.000063536
      9        1           0.000001077    0.000036305    0.000005069
     10        1           0.000003389    0.000015763    0.000023620
     11        6          -0.000077703    0.000013554    0.000005029
     12        6          -0.000009968    0.000000350    0.000005457
     13        8           0.000003314   -0.000004519   -0.000001518
 -------------------------------------------------------------------
 Cartesian Forces:  Max     0.003381664 RMS     0.000782461
 -----------------------------------------------------------------------------------------------
                       Internal Coordinate Forces (Hartree/Bohr or radian)
  Cent   Atom   N1       Length/X         N2         Alpha/Y        N3         Beta/Z          J
 -----------------------------------------------------------------------------------------------
      1  C 
      2  O        1  -0.003382(     1)
      3  H        2  -0.000005(     2)      1  -0.000021(    13)
      4  H        2  -0.000022(     3)      1   0.000012(    14)      3   0.000001(    24)     0
      5  H        1  -0.000007(     4)      2  -0.000004(    15)      3   0.000010(    25)     0
      6  H        1  -0.000008(     5)      2   0.000010(    16)      3   0.000011(    26)     0
      7  H        1   0.000006(     6)      2   0.000304(    17)      3  -0.000179(    27)     0
      8  H        1  -0.000036(     7)      2  -0.000298(    18)      3  -0.000263(    28)     0
      9  H        1  -0.000020(     8)      2  -0.000023(    19)      3   0.000200(    29)     0
     10  H        1  -0.000027(     9)      2  -0.000038(    20)      3   0.000010(    30)     0
     11  C        1   0.000069(    10)      2  -0.000049(    21)      3   0.000189(    31)     0
     12  C        1   0.000007(    11)      2  -0.000011(    22)     11   0.000006(    32)     0
     13  O       12   0.000003(    12)      1   0.000004(    23)      2  -0.000013(    33)     0
 -----------------------------------------------------------------------------------------------
 Internal  Forces:  Max     0.003381875 RMS     0.000598194

 GradGradGradGradGradGradGradGradGradGradGradGradGradGradGradGradGradGrad
 Berny optimization.
 Search for a saddle point.
 Step number   1 out of a maximum of    2
 All quantities printed in internal units (Hartrees-Bohrs-Radians)
 Swaping is turned off.
 Second derivative matrix not updated -- analytic derivatives used.
 ITU=  0
     Eigenvalues ---   -0.05496   0.00268   0.01114   0.01351   0.01535
     Eigenvalues ---    0.03516   0.06134   0.07968   0.09294   0.11369
     Eigenvalues ---    0.14185   0.16169   0.18728   0.27210   0.28600
     Eigenvalues ---    0.29656   0.33530   0.36770   0.37198   0.41126
     Eigenvalues ---    0.45776   0.52861   0.59316   0.81325   1.15324
     Eigenvalues ---    2.59920   3.34761   3.83459   5.43920   6.72089
     Eigenvalues ---   16.56845  19.36678
 Eigenvectors required to have negative eigenvalues:
                          A11       A4        A10       B2        A8
   1                    0.47918   0.43272  -0.38295   0.35900  -0.29237
                          B8        A1        A7        A9        A3
   1                   -0.19785  -0.17997  -0.16640  -0.14063  -0.11666
 Angle between quadratic step and forces=  84.04 degrees.
 Linear search not attempted -- option 19 set.
 Variable       Old X    -DE/DX   Delta X   Delta X   Delta X     New X
                                 (Linear)    (Quad)   (Total)
    B1        1.82983  -0.00001   0.00000  -0.00001  -0.00001   1.82982
    B2        1.96627  -0.00002   0.00000  -0.00061  -0.00061   1.96567
    B3        2.04966  -0.00001   0.00000  -0.00003  -0.00003   2.04962
    B4        2.04941  -0.00001   0.00000  -0.00006  -0.00006   2.04935
    B5        5.25107   0.00001   0.00000   0.00238   0.00238   5.25344
    B6        5.46140  -0.00004   0.00000   0.00120   0.00120   5.46260
    B7        6.53761  -0.00002   0.00000   0.00087   0.00087   6.53848
    B8        4.01132  -0.00003   0.00000   0.00005   0.00005   4.01137
    B9        4.80966   0.00007   0.00000   0.00130   0.00130   4.81097
   B10        2.79430   0.00001   0.00000   0.00010   0.00010   2.79440
   B11        2.63442   0.00000   0.00000   0.00002   0.00002   2.63444
    A1        1.94729  -0.00002   0.00000   0.00005   0.00005   1.94733
    A2        1.26430   0.00001   0.00000   0.00026   0.00026   1.26457
    A3        1.73200   0.00000   0.00000   0.00114   0.00114   1.73313
    A4        1.35135   0.00001   0.00000  -0.00079  -0.00079   1.35056
    A5        1.29209   0.00030   0.00000  -0.00139  -0.00139   1.29070
    A6        1.92735  -0.00030   0.00000  -0.00178  -0.00178   1.92557
    A7        1.65019  -0.00002   0.00000  -0.00080  -0.00080   1.64939
    A8        2.20891  -0.00004   0.00000   0.00006   0.00006   2.20898
    A9        1.64685  -0.00005   0.00000  -0.00127  -0.00127   1.64558
   A10        1.75367  -0.00001   0.00000  -0.00032  -0.00032   1.75334
   A11        1.66342   0.00000   0.00000  -0.00068  -0.00068   1.66274
    D1       -1.78678   0.00000   0.00000   0.00028   0.00028  -1.78650
    D2        0.14999   0.00001   0.00000   0.00096   0.00096   0.15095
    D3       -1.88084   0.00001   0.00000   0.00107   0.00107  -1.87977
    D4        3.00861  -0.00018   0.00000  -0.00045  -0.00045   3.00816
    D5        3.08528  -0.00026   0.00000   0.00048   0.00048   3.08576
    D6        2.60840   0.00020   0.00000   0.00021   0.00021   2.60861
    D7        1.97747   0.00001   0.00000   0.00175   0.00175   1.97922
    D8        2.81151   0.00019   0.00000   0.00024   0.00024   2.81174
    D9       -0.56761   0.00001   0.00000   0.00061   0.00061  -0.56700
   D10       -0.68594  -0.00001   0.00000  -0.00178  -0.00178  -0.68772
         Item               Value     Threshold  Converged?
 Maximum Force            0.000304     0.000450     YES
 RMS     Force            0.000108     0.000300     YES
 Maximum Displacement     0.002376     0.001800     NO 
 RMS     Displacement     0.000954     0.001200     YES
 Predicted change in Energy=-1.708375D-07
 GradGradGradGradGradGradGradGradGradGradGradGradGradGradGradGradGradGrad

 1\1\GINC-C51N13\Freq\RB3LYP\6-31++G(d,p)\C3H8O2\ROOT\06-Mar-2018\1\\#N
  Geom=AllCheck Guess=TCheck SCRF=Check GenChk RB3LYP/6-31++G(d,p) Freq
 \\OH-BACK-TERM\\0,1\C\O,1,2.20329058\H,2,B1,1,A1\H,2,B2,1,A2,3,D1,0\H,
 1,B3,2,A3,3,D2,0\H,1,B4,2,A4,3,D3,0\H,1,B5,2,A5,3,D4,0\H,1,B6,2,A6,3,D
 5,0\H,1,B7,2,A7,3,D6,0\H,1,B8,2,A8,3,D7,0\C,1,B9,2,A9,3,D8,0\C,1,B10,2
 ,A10,11,D9,0\O,12,B11,1,A11,2,D10,0\\B1=0.96830378\B2=1.04050757\B3=1.
 08463314\B4=1.08450186\B5=2.77874451\B6=2.89004666\B7=3.45955276\B8=2.
 12269989\B9=2.54516509\B10=1.4786799\B11=1.39407449\A1=111.57138737\A2
 =72.4392808\A3=99.23603493\A4=77.426612\A5=74.03110302\A6=110.42899696
 \A7=94.54880129\A8=126.56144838\A9=94.35737633\A10=100.47764536\A11=95
 .30717368\D1=-102.37477712\D2=8.59368633\D3=-107.76426924\D4=172.38042
 921\D5=176.77333011\D6=149.4501934\D7=113.30052739\D8=161.08752524\D9=
 -32.52151823\D10=-39.30153548\\Version=EM64L-G09RevB.01\HF=-269.486292
 8\RMSD=2.851e-09\RMSF=7.825e-04\ZeroPoint=0.1070368\Thermal=0.1131573\
 Dipole=0.5421036,1.0523,-0.5396183\DipoleDeriv=0.1474607,-0.0303197,0.
 1060735,0.1096718,0.5962115,0.2119196,0.2211072,0.2958106,0.7146134,-0
 .3694776,-0.0944946,-0.1624235,-0.1670334,-0.5818128,-0.3229049,-0.229
 8276,-0.4375778,-1.1191484,0.1999048,0.0418921,0.0553234,0.0595618,0.2
 982384,0.0342723,-0.0035684,-0.0102829,0.2904749,0.2587818,0.0825936,0
 .1035507,0.1236257,0.3335631,0.3619648,0.0849569,0.1023886,0.5639224,-
 0.0213299,-0.0060862,0.0079445,0.0113132,0.055276,0.022683,-0.0131834,
 0.0010853,0.0065719,0.060824,0.0288151,0.0176643,0.020922,0.0389516,0.
 0320556,-0.0290924,-0.1077595,0.0096746,0.0390529,0.0001579,-0.0107677
 ,0.0355645,0.0286408,-0.055304,0.0553917,-0.0671761,-0.0566246,-0.0289
 942,-0.012879,-0.0233954,0.0804015,-0.0129399,0.1213901,-0.0746806,0.1
 123379,-0.081965,-0.0017581,-0.0295528,-0.0246542,-0.104761,-0.07119,-
 0.0219991,-0.0080544,-0.0137159,0.0773645,-0.0302827,0.0393892,0.02271
 47,0.0159837,0.0567671,-0.0957011,0.0100387,-0.1057975,-0.2424902,-0.1
 02265,0.0593498,0.013999,0.0460868,0.1339595,-0.0541458,-0.0126604,-0.
 0719172,0.1029678,0.5446768,0.048239,0.1552692,-0.2144022,0.1028693,-0
 .2162694,0.1592601,0.2393685,0.5917786,-0.6965935,-0.1271045,-0.261298
 6,-0.0169344,-0.9785346,-0.0179612,-0.1596875,0.063236,-0.8571399\Pola
 r=53.3278382,6.016992,56.6543457,6.3679686,2.501138,61.8287068\PG=C01 
 [X(C3H8O2)]\NImag=1\\0.61497206,-0.04077582,0.55176743,-0.05405839,0.1
 0044404,0.15374136,-0.01354120,0.00402961,0.00508845,0.50570400,-0.001
 05159,-0.01914239,-0.00180741,0.03768278,0.30961735,0.00806930,0.02115
 201,0.02152190,0.19752873,0.09256511,0.13313245,0.00107360,-0.00250046
 ,-0.00641582,-0.44981181,-0.01774147,-0.17271788,0.45528417,0.00120105
 ,-0.00223360,-0.00106633,0.02159356,-0.03627472,0.00711677,0.00915603,
 0.03286050,-0.00527342,0.00366696,0.00331452,-0.16558461,-0.00647198,-
 0.07878347,0.17759432,0.00568195,0.08106773,0.00479748,0.00464963,0.01
 050789,-0.05192586,0.00116144,-0.02228823,-0.00822982,-0.03453613,-0.0
 0917108,0.07237968,0.00360532,0.01869857,0.03180594,-0.04340121,-0.216
 43301,-0.08032575,0.00898227,0.00989282,0.00091952,0.02364470,0.197639
 11,0.00373019,0.02073889,-0.00128263,-0.01732896,-0.02347388,-0.045729
 81,-0.00028180,-0.00901605,-0.00411507,0.01120916,-0.00086404,0.040586
 56,-0.34013405,0.04342735,0.05395147,0.00104881,-0.00024511,-0.0007889
 9,0.00031622,-0.00003331,0.00038282,-0.00028421,0.00047363,0.00037287,
 0.35323599,0.04902169,-0.06212401,-0.01355140,-0.00257073,-0.00055370,
 0.00212864,-0.00004007,0.00062493,-0.00071297,0.00000848,0.00064649,0.
 00044977,-0.04673118,0.05608727,0.04788946,-0.01763316,-0.04211203,0.0
 0434062,-0.00001842,-0.00503400,0.00040380,-0.00047698,-0.00024743,0.0
 0034994,-0.00024837,-0.00036447,-0.05182625,0.01416446,0.03697388,-0.0
 9039677,0.07849191,0.02207507,0.00035326,-0.00073695,0.00069976,0.0001
 0550,0.00060015,0.00000242,0.00010211,0.00008355,0.00027915,-0.0023934
 5,0.02449917,0.00560247,0.07916668,0.08348008,-0.31619258,-0.06535355,
 0.00075050,-0.00096633,0.00624601,-0.00089433,0.00007230,0.00070203,0.
 00097276,0.00312155,0.00185024,-0.00242327,0.00266904,-0.00353609,-0.0
 8779708,0.31858923,0.02257252,-0.06568352,-0.04304566,-0.00484005,0.01
 060494,-0.02211150,0.00156188,0.00155762,-0.00281297,-0.00183435,-0.00
 718829,-0.00541843,-0.00130591,-0.00542762,0.00587063,-0.02346917,0.07
 263115,0.04697545,0.00133282,0.00163011,0.00173927,0.00037384,-0.00021
 021,-0.00052960,0.00012346,-0.00018167,0.00006110,-0.00081653,0.000782
 63,0.00005919,0.00028046,-0.00010379,-0.00012323,-0.00014792,-0.000734
 12,0.00004636,0.06554196,-0.00064334,0.00096353,0.00038699,-0.00013022
 ,0.00004904,0.00015905,-0.00008705,-0.00003667,-0.00003742,0.00066092,
 -0.00004488,-0.00013689,0.00010852,-0.00011226,0.00018236,0.00010018,0
 .00012004,-0.00016549,-0.02717785,0.10041405,-0.00028637,-0.00037013,-
 0.00015372,-0.00023454,0.00035211,0.00002255,-0.00010976,-0.00003901,-
 0.00000009,-0.00009169,-0.00042541,-0.00022174,-0.00000181,0.00018568,
 0.00017874,0.00059425,0.00031380,-0.00013650,-0.05601006,0.11046801,0.
 27279793,0.00152855,0.00059955,0.00100255,0.00025058,-0.00010349,-0.00
 132335,0.00009699,0.00005201,0.00005902,-0.00024526,-0.00017985,0.0002
 6423,0.00024971,0.00014169,-0.00001643,-0.00019934,-0.00025362,-0.0004
 1091,0.00125108,-0.00553044,0.00488058,0.06900841,0.00044204,-0.000595
 67,-0.00052982,-0.00011856,0.00019905,0.00074190,-0.00007052,-0.000004
 05,-0.00004437,0.00022524,-0.00012350,-0.00016312,0.00009013,0.0000481
 8,0.00003282,0.00000275,0.00004649,0.00009231,-0.00500029,0.00953111,-
 0.01044601,-0.04772161,0.15170353,-0.00044501,0.00109683,-0.00009455,-
 0.00018012,-0.00025002,-0.00014956,-0.00003219,0.00004247,0.00003381,0
 .00053975,0.00008934,0.00023216,-0.00003122,-0.00012953,-0.00020668,-0
 .00023463,-0.00026139,-0.00023601,-0.00801808,0.01809282,-0.01834205,0
 .05686624,-0.12957737,0.20401393,-0.00650714,0.00156096,0.00141736,0.0
 0007708,0.00008599,0.00047273,0.00001022,0.00001378,0.00006340,-0.0000
 5398,0.00007759,0.00008513,-0.00121123,-0.00110807,-0.00134488,0.00009
 959,-0.00006249,0.00028711,0.00381074,0.00677371,-0.00001242,0.0052396
 0,0.00889626,0.00159821,0.12772231,0.00188542,0.00010727,0.00071520,-0
 .00009732,0.00002353,-0.00017077,-0.00000378,0.00003312,0.00001356,0.0
 0003967,-0.00009477,0.00005055,0.00042234,0.00050557,-0.00027812,0.000
 29728,0.00019298,0.00016725,-0.00635769,-0.01082942,0.00010187,-0.0091
 4611,-0.01514124,-0.00245611,0.12946557,0.26239619,0.00032596,-0.00039
 888,0.00011646,-0.00011299,0.00007015,0.00016345,-0.00008583,0.0000339
 2,0.00006465,0.00009373,-0.00027435,0.00001044,0.00000897,0.00013038,0
 .00001119,0.00005413,0.00006137,0.00007684,-0.01559446,-0.02434226,-0.
 00100320,0.01376818,0.02036632,0.00204141,0.01049855,0.01985678,0.0476
 3820,0.00430129,-0.01226815,-0.01390341,-0.00046368,-0.00233446,0.0010
 1564,0.00016144,0.00003669,0.00018117,0.00035905,0.00325341,0.00181279
 ,0.00065344,0.00035727,0.00035207,-0.00145679,-0.00264895,0.00060177,-
 0.00654679,0.00117531,0.00033494,0.00152862,0.00000604,-0.00068149,0.0
 0128175,-0.00059462,-0.00007578,0.06623885,0.00587312,-0.01820880,-0.0
 2343244,0.00014135,0.00100489,0.00204266,0.00006467,0.00010285,0.00012
 590,-0.00022386,-0.00174530,0.00047361,-0.00015525,0.00111623,0.001003
 09,-0.00277973,-0.00329697,0.00074480,0.00099151,0.00091714,0.00038053
 ,-0.00009766,-0.00010972,0.00000509,0.00012755,0.00059588,0.00048328,-
 0.02298803,0.09491475,-0.00053165,-0.00449350,-0.00493642,-0.00038241,
 -0.00340637,-0.00155836,-0.00001534,0.00002448,0.00017543,0.00149733,0
 .00538241,0.00232152,-0.00027079,-0.00048318,0.00117029,-0.00116299,0.
 00104727,-0.00226189,0.00044814,-0.00017599,0.00118296,0.00064769,-0.0
 0062445,0.00049850,0.00005586,0.00034635,0.00002832,-0.04401461,0.0907
 1254,0.24590813,-0.02502084,0.00053363,-0.00029292,-0.00054607,0.00009
 450,0.00023825,-0.00027430,-0.00003788,0.00005436,0.00039784,-0.000201
 54,-0.00060086,-0.00031155,-0.00149272,0.00129904,0.00182883,0.0018284
 0,-0.00126277,-0.05968166,0.02444258,0.05071613,-0.06626890,0.04250575
 ,-0.05068426,-0.11668203,-0.11973843,-0.01005694,-0.01040850,0.0021351
 9,0.00090754,0.46626439,-0.03099786,0.00441992,0.00278512,0.00031178,0
 .00043828,0.00121564,0.00003591,-0.00003303,0.00012807,-0.00053107,0.0
 0011765,-0.00018618,-0.00450767,-0.00345001,-0.00350563,0.00034921,0.0
 0080287,0.00051281,0.02433758,-0.09739865,-0.10105583,0.04193571,-0.14
 240697,0.11637568,-0.11767028,-0.24508121,-0.01831353,0.01505156,-0.00
 074929,-0.00281220,0.02548892,0.56977476,-0.00335995,-0.00116986,0.002
 08256,0.00072097,-0.00015937,-0.00190059,0.00032699,0.00020534,-0.0001
 2113,-0.00151058,0.00016512,0.00028897,-0.00062173,-0.00026927,0.00081
 155,-0.00057669,0.00124245,-0.00063074,0.04832011,-0.10049644,-0.25421
 030,-0.05013720,0.11558610,-0.19014167,-0.01101539,-0.01844244,-0.0484
 1301,0.02884899,-0.00498594,-0.00239418,0.00224326,0.00296373,0.575203
 70,-0.15532886,-0.09404620,-0.02196753,0.00154222,-0.00016929,0.006423
 85,-0.00080605,0.00020915,0.00071433,-0.00040864,0.00035923,-0.0011085
 6,-0.01487468,-0.02005383,-0.01586599,0.01176120,0.00643584,0.01404343
 ,-0.00890355,0.00138580,0.00012818,-0.00431057,-0.00233540,0.00291578,
 -0.01753157,0.00478363,0.00135884,-0.06063984,0.01611664,0.05269399,-0
 .17856535,0.02014955,0.01834743,0.51085687,-0.06960606,-0.13261052,-0.
 05400771,-0.00467880,-0.01485438,-0.01178867,0.00113914,0.00013576,-0.
 00076563,-0.00070432,0.01323017,0.00694524,0.00723378,0.00408952,0.008
 85112,-0.01050672,-0.00684253,0.00278553,0.01367916,-0.00285407,0.0007
 0540,0.01901385,-0.00442711,-0.00332415,-0.02939462,0.00620864,0.00250
 000,0.01597874,-0.08906460,-0.08991067,0.01429993,-0.08052275,-0.00489
 517,0.01547059,0.42147072,-0.02252951,-0.08967438,-0.05165696,-0.00077
 620,-0.00785374,0.01874435,-0.00004463,0.00029269,0.00232663,-0.002256
 57,0.01847238,-0.00109075,0.00166519,0.00614200,0.00154802,-0.00674211
 ,-0.01534291,0.01507076,0.03085259,-0.00419782,-0.00228798,-0.02619203
 ,0.00432353,0.00117165,-0.00249056,0.00077430,-0.00072515,0.04049688,-
 0.09768864,-0.19983991,0.02057112,-0.00450199,-0.07755663,-0.01224116,
 0.07538502,0.46546587,0.00292307,0.01466788,0.00085600,0.00693883,-0.0
 1643215,-0.01680022,0.00195038,0.00192657,0.00091619,-0.01607186,0.002
 52028,0.00150747,0.00342456,-0.00192790,0.00893938,0.00117710,0.001346
 28,-0.00598991,0.00338209,-0.00107812,0.00009257,-0.00812946,0.0030781
 8,-0.00161296,0.00374467,-0.00095597,-0.00018237,0.00499115,0.00079450
 ,-0.00987277,-0.01073187,0.02604666,-0.03158620,-0.08279119,0.02807533
 ,-0.02031302,0.08919254,-0.00243405,-0.02484915,0.02361137,-0.01351275
 ,-0.02310760,-0.04108259,0.00195966,-0.00514022,-0.00320561,0.00463255
 ,-0.02490489,0.00333185,0.00234004,0.00045275,0.00146293,-0.00260372,0
 .00168392,-0.01063148,-0.00165536,-0.00071895,-0.00017102,0.00128997,0
 .00127990,0.00029632,0.00123405,0.00108347,-0.00017319,0.00497519,0.01
 452294,0.00439332,0.01014166,-0.00591158,0.01025574,0.05169430,-0.1139
 5885,0.11386955,-0.05806155,0.17956826,0.00389687,0.03232470,-0.037494
 84,-0.01823891,-0.06015113,-0.01831740,-0.00018374,-0.00435688,-0.0009
 0260,0.01295469,0.03249149,0.01478325,-0.00153462,-0.00262694,0.001400
 32,0.00287832,0.00039962,0.00866002,-0.00125131,0.00026309,0.00217340,
 0.00059144,0.00024216,0.00117906,0.00038491,-0.00067842,-0.00000961,-0
 .01496896,0.03013551,-0.04029438,-0.01313194,0.00639431,-0.00301853,-0
 .04544259,0.06751967,-0.17116990,0.07404583,-0.10195719,0.24301123\\-0
 .00045907,-0.00071710,-0.00333812,0.00038410,0.00063329,0.00338166,0.0
 0000048,0.00006592,0.00001240,-0.00000478,-0.00001832,-0.00001219,0.00
 000700,0.00000417,-0.00000295,-0.00000712,0.00000488,0.00000641,0.0000
 1687,0.00003809,0.00005397,-0.00001737,0.00005052,-0.00006354,-0.00000
 108,-0.00003630,-0.00000507,-0.00000339,-0.00001576,-0.00002362,0.0000
 7770,-0.00001355,-0.00000503,0.00000997,-0.00000035,-0.00000546,-0.000
 00331,0.00000452,0.00000152\\\@


 I KNOW YOU BELIEVE YOU UNDERSTAND WHAT YOU THINK I SAID,
 BUT I AM NOT SURE YOU REALIZE THAT WHAT YOU HEARD IS NOT WHAT I MEANT.
 Job cpu time:  0 days  0 hours  7 minutes 49.2 seconds.
 File lengths (MBytes):  RWF=   1248 Int=      0 D2E=      0 Chk=     32 Scr=     32
 Normal termination of Gaussian 09 at Tue Mar  6 12:54:39 2018.
