 Entering Gaussian System, Link 0=g09
 Input=H3O-mid-field.gjf
 Output=H3O-mid-field.log
 Initial command:
 /share/home/zxchen/g09/l1.exe /scratch/zxchen/Gau-22026.inp -scrdir=/scratch/zxchen/
 Entering Link 1 = /share/home/zxchen/g09/l1.exe PID=     22027.
  
 Copyright (c) 1988,1990,1992,1993,1995,1998,2003,2009,2010,
            Gaussian, Inc.  All Rights Reserved.
  
 This is part of the Gaussian(R) 09 program.  It is based on
 the Gaussian(R) 03 system (copyright 2003, Gaussian, Inc.),
 the Gaussian(R) 98 system (copyright 1998, Gaussian, Inc.),
 the Gaussian(R) 94 system (copyright 1995, Gaussian, Inc.),
 the Gaussian 92(TM) system (copyright 1992, Gaussian, Inc.),
 the Gaussian 90(TM) system (copyright 1990, Gaussian, Inc.),
 the Gaussian 88(TM) system (copyright 1988, Gaussian, Inc.),
 the Gaussian 86(TM) system (copyright 1986, Carnegie Mellon
 University), and the Gaussian 82(TM) system (copyright 1983,
 Carnegie Mellon University). Gaussian is a federally registered
 trademark of Gaussian, Inc.
  
 This software contains proprietary and confidential information,
 including trade secrets, belonging to Gaussian, Inc.
  
 This software is provided under written license and may be
 used, copied, transmitted, or stored only in accord with that
 written license.
  
 The following legend is applicable only to US Government
 contracts under FAR:
  
                    RESTRICTED RIGHTS LEGEND
  
 Use, reproduction and disclosure by the US Government is
 subject to restrictions as set forth in subparagraphs (a)
 and (c) of the Commercial Computer Software - Restricted
 Rights clause in FAR 52.227-19.
  
 Gaussian, Inc.
 340 Quinnipiac St., Bldg. 40, Wallingford CT 06492
  
  
 ---------------------------------------------------------------
 Warning -- This program may not be used in any manner that
 competes with the business of Gaussian, Inc. or will provide
 assistance to any competitor of Gaussian, Inc.  The licensee
 of this program is prohibited from giving any competitor of
 Gaussian, Inc. access to this program.  By using this program,
 the user acknowledges that Gaussian, Inc. is engaged in the
 business of creating and licensing software in the field of
 computational chemistry and represents and warrants to the
 licensee that it is not a competitor of Gaussian, Inc. and that
 it will not use this program in any manner prohibited above.
 ---------------------------------------------------------------
  

 Cite this work as:
 Gaussian 09, Revision B.01,
 M. J. Frisch, G. W. Trucks, H. B. Schlegel, G. E. Scuseria, 
 M. A. Robb, J. R. Cheeseman, G. Scalmani, V. Barone, B. Mennucci, 
 G. A. Petersson, H. Nakatsuji, M. Caricato, X. Li, H. P. Hratchian, 
 A. F. Izmaylov, J. Bloino, G. Zheng, J. L. Sonnenberg, M. Hada, 
 M. Ehara, K. Toyota, R. Fukuda, J. Hasegawa, M. Ishida, T. Nakajima, 
 Y. Honda, O. Kitao, H. Nakai, T. Vreven, J. A. Montgomery, Jr., 
 J. E. Peralta, F. Ogliaro, M. Bearpark, J. J. Heyd, E. Brothers, 
 K. N. Kudin, V. N. Staroverov, T. Keith, R. Kobayashi, J. Normand, 
 K. Raghavachari, A. Rendell, J. C. Burant, S. S. Iyengar, J. Tomasi, 
 M. Cossi, N. Rega, J. M. Millam, M. Klene, J. E. Knox, J. B. Cross, 
 V. Bakken, C. Adamo, J. Jaramillo, R. Gomperts, R. E. Stratmann, 
 O. Yazyev, A. J. Austin, R. Cammi, C. Pomelli, J. W. Ochterski, 
 R. L. Martin, K. Morokuma, V. G. Zakrzewski, G. A. Voth, 
 P. Salvador, J. J. Dannenberg, S. Dapprich, A. D. Daniels, 
 O. Farkas, J. B. Foresman, J. V. Ortiz, J. Cioslowski, 
 and D. J. Fox, Gaussian, Inc., Wallingford CT, 2010.
 
 ******************************************
 Gaussian 09:  EM64L-G09RevB.01 12-Aug-2010
                 6-Mar-2018 
 ******************************************
 %chk=H3O-mid-field.chk
 %nprocshared=24
 Will use up to   24 processors via shared memory.
 ----------------------------------------------------------------------
 # opt=(z-matrix,ts,calcfc,noeigen,maxcycle=300) nosymm field=z-25 freq
  rb3lyp/6-31++g(d,p)
 ----------------------------------------------------------------------
 1/5=1,6=300,10=4,11=1,14=-1,18=40,26=3,38=1/1,3;
 2/12=2,15=1,17=6,18=5,29=3,40=1/2;
 3/5=1,6=6,7=1111,11=2,14=3,15=-25,16=1,25=1,30=1,71=2,74=-5,116=1/1,2,3;
 4//1;
 5/5=2,38=5/2;
 8/6=4,10=90,11=11/1;
 11/6=1,8=1,9=11,15=111,16=1,31=1/1,2,10;
 10/6=1,7=6,13=1,31=1/2;
 6/7=2,8=2,9=2,10=2,28=1/1;
 7/10=1,18=20,25=1,30=1/1,2,3,16;
 1/5=1,6=300,10=4,11=1,14=-1,18=40/3(2);
 2/15=1,29=3/2;
 99//99;
 2/15=1,29=3/2;
 3/5=1,6=6,7=1111,11=2,14=3,15=-25,16=1,25=1,30=1,71=1,74=-5,116=1/1,2,3;
 4/5=5,16=3/1;
 5/5=2,38=5/2;
 7/30=1/1,2,3,16;
 1/5=1,6=300,11=1,14=-1,18=40/3(-5);
 2/15=1,29=3/2;
 6/7=2,8=2,9=2,10=2,19=2,28=1/1;
 99/9=1/99;
 -------------
 H3O-BACK-MIDM
 -------------
 Symbolic Z-matrix:
 Charge =  1 Multiplicity = 1
 C
 O                    1     2.34824 
 H                    1    B1       2    A1
 H                    1    B2       2    A2       3    D1       0
 H                    2    B3       1    A3       4    D2       0
 H                    2    B4       1    A4       4    D3       0
 H                    1    B5       2    A5       5    D4       0
 H                    1    B6       2    A6       5    D5       0
 H                    1    B7       2    A7       5    D6       0
 H                    1    B8       2    A8       5    D7       0
 H                    1    B9       2    A9       5    D8       0
 C                    1    B10      2    A10      5    D9       0
 C                    1    B11      12   A11      2    D10      0
 O                    12   B12      1    A12      13   D11      0
       Variables:
  B1                    2.17681                  
  B2                    2.17328                  
  B3                    0.96                     
  B4                    0.96                     
  B5                    1.07                     
  B6                    2.475                    
  B7                    2.08329                  
  B8                    2.13489                  
  B9                    2.07075                  
  B10                   1.47047                  
  B11                   1.47109                  
  B12                   1.45946                  
  A1                   80.04289                  
  A2                   89.88044                  
  A3                  125.5523                   
  A4                  126.14026                  
  A5                   85.38166                  
  A6                  134.8851                   
  A7                  125.11844                  
  A8                   98.05652                  
  A9                   76.72068                  
  A10                  94.14974                  
  A11                 124.19281                  
  A12                  83.23699                  
  D1                   47.63161                  
  D2                  -67.19469                  
  D3                  131.4423                   
  D4                  150.88999                  
  D5                 -134.44255                  
  D6                   50.10685                  
  D7                    5.33915                  
  D8                   50.26192                  
  D9                  -92.94884                  
  D10                -105.8252                   
  D11                  83.58317                  
 

 GradGradGradGradGradGradGradGradGradGradGradGradGradGradGradGradGradGrad
 Berny optimization.
 Initialization pass.
                       ----------------------------
                       !    Initial Parameters    !
                       ! (Angstroms and Degrees)  !
 ----------------------                            ----------------------
 !      Name          Value   Derivative information (Atomic Units)     !
 ------------------------------------------------------------------------
 !       B1          2.1768   calculate D2E/DX2 analytically            !
 !       B2          2.1733   calculate D2E/DX2 analytically            !
 !       B3          0.96     calculate D2E/DX2 analytically            !
 !       B4          0.96     calculate D2E/DX2 analytically            !
 !       B5          1.07     calculate D2E/DX2 analytically            !
 !       B6          2.475    calculate D2E/DX2 analytically            !
 !       B7          2.0833   calculate D2E/DX2 analytically            !
 !       B8          2.1349   calculate D2E/DX2 analytically            !
 !       B9          2.0708   calculate D2E/DX2 analytically            !
 !       B10         1.4705   calculate D2E/DX2 analytically            !
 !       B11         1.4711   calculate D2E/DX2 analytically            !
 !       B12         1.4595   calculate D2E/DX2 analytically            !
 !       A1         80.0429   calculate D2E/DX2 analytically            !
 !       A2         89.8804   calculate D2E/DX2 analytically            !
 !       A3        125.5523   calculate D2E/DX2 analytically            !
 !       A4        126.1403   calculate D2E/DX2 analytically            !
 !       A5         85.3817   calculate D2E/DX2 analytically            !
 !       A6        134.8851   calculate D2E/DX2 analytically            !
 !       A7        125.1184   calculate D2E/DX2 analytically            !
 !       A8         98.0565   calculate D2E/DX2 analytically            !
 !       A9         76.7207   calculate D2E/DX2 analytically            !
 !       A10        94.1497   calculate D2E/DX2 analytically            !
 !       A11       124.1928   calculate D2E/DX2 analytically            !
 !       A12        83.237    calculate D2E/DX2 analytically            !
 !       D1         47.6316   calculate D2E/DX2 analytically            !
 !       D2        -67.1947   calculate D2E/DX2 analytically            !
 !       D3        131.4423   calculate D2E/DX2 analytically            !
 !       D4        150.89     calculate D2E/DX2 analytically            !
 !       D5       -134.4425   calculate D2E/DX2 analytically            !
 !       D6         50.1068   calculate D2E/DX2 analytically            !
 !       D7          5.3391   calculate D2E/DX2 analytically            !
 !       D8         50.2619   calculate D2E/DX2 analytically            !
 !       D9        -92.9488   calculate D2E/DX2 analytically            !
 !       D10      -105.8252   calculate D2E/DX2 analytically            !
 !       D11        83.5832   calculate D2E/DX2 analytically            !
 ------------------------------------------------------------------------
 Trust Radius=3.00D-01 FncErr=1.00D-07 GrdErr=1.00D-06
 Number of steps in this run=    100 maximum allowed number of steps=    100.
 Search for a saddle point of order  1.
 GradGradGradGradGradGradGradGradGradGradGradGradGradGradGradGradGradGrad

 ---------------------------------------------------------------------------------------------------
                            Z-MATRIX (ANGSTROMS AND DEGREES)
   CD    Cent   Atom    N1       Length/X        N2       Alpha/Y        N3        Beta/Z          J
 ---------------------------------------------------------------------------------------------------
      1      1  C 
      2      2  O        1   2.348235(     1)
      3      3  H        1   2.176815(     2)      2   80.043(    14)
      4      4  H        1   2.173279(     3)      2   89.880(    15)      3   47.632(    26)      0
      5      5  H        2   0.960000(     4)      1  125.552(    16)      4  -67.195(    27)      0
      6      6  H        2   0.960000(     5)      1  126.140(    17)      4  131.442(    28)      0
      7      7  H        1   1.070000(     6)      2   85.382(    18)      5  150.890(    29)      0
      8      8  H        1   2.475000(     7)      2  134.885(    19)      5 -134.443(    30)      0
      9      9  H        1   2.083290(     8)      2  125.118(    20)      5   50.107(    31)      0
     10     10  H        1   2.134888(     9)      2   98.057(    21)      5    5.339(    32)      0
     11     11  H        1   2.070753(    10)      2   76.721(    22)      5   50.262(    33)      0
     12     12  C        1   1.470465(    11)      2   94.150(    23)      5  -92.949(    34)      0
     13     13  C        1   1.471092(    12)     12  124.193(    24)      2 -105.825(    35)      0
     14     14  O       12   1.459460(    13)      1   83.237(    25)     13   83.583(    36)      0
 ---------------------------------------------------------------------------------------------------
                         Z-Matrix orientation:                         
 ---------------------------------------------------------------------
 Center     Atomic      Atomic             Coordinates (Angstroms)
 Number     Number       Type             X           Y           Z
 ---------------------------------------------------------------------
      1          6           0        0.000000    0.000000    0.000000
      2          8           0        0.000000    0.000000    2.348235
      3          1           0        2.144027    0.000000    0.376395
      4          1           0        1.464558   -1.605674    0.004535
      5          1           0       -0.327935   -0.708862    2.906423
      6          1           0        0.083585    0.770754    2.914408
      7          1           0       -0.079664    1.063546    0.086154
      8          1           0        1.651821    0.588715   -1.746576
      9          1           0       -1.645477   -0.442963   -1.198451
     10          1           0       -1.062190   -1.827560   -0.299204
     11          1           0       -1.947513   -0.518622    0.475649
     12          6           0        1.360989   -0.546493   -0.106408
     13          6           0       -1.223685   -0.770190   -0.271135
     14          8           0        1.194182   -0.224208   -1.520031
 ---------------------------------------------------------------------
                    Distance matrix (angstroms):
                    1          2          3          4          5
     1  C    0.000000
     2  O    2.348235   0.000000
     3  H    2.176815   2.912903   0.000000
     4  H    2.173279   3.196256   1.782736   0.000000
     5  H    3.009538   0.960000   3.607509   3.526792   0.000000
     6  H    3.015763   0.960000   3.358719   4.002732   1.535798
     7  H    1.070000   2.500897   2.481970   3.084805   3.340207
     8  H    2.475000   4.454500   2.257401   2.813680   5.220492
     9  H    2.083290   3.934818   4.127553   3.531486   4.319330
    10  H    2.134888   3.387795   3.751831   2.554594   3.473710
    11  H    2.070753   2.751064   4.125472   3.611906   2.927095
    12  C    1.470465   2.859409   1.070000   1.070000   3.457742
    13  C    1.471092   2.991939   3.514822   2.828548   3.301970
    14  O    1.945979   4.054605   2.132817   2.075055   4.705871
                    6          7          8          9         10
     6  H    0.000000
     7  H    2.848052   0.000000
     8  H    4.921105   2.565620   0.000000
     9  H    4.623676   2.524193   3.498138   0.000000
    10  H    4.288513   3.077719   3.911409   1.750993   0.000000
    11  H    3.425697   2.478674   4.372606   1.702810   1.759975
    12  C    3.534435   2.169053   2.015795   3.200331   2.747745
    13  C    3.772420   2.190668   3.506006   1.070000   1.070000
    14  O    4.678421   2.420914   0.960000   2.866170   3.025288
                   11         12         13         14
    11  H    0.000000
    12  C    3.359428   0.000000
    13  C    1.070000   2.599561   0.000000
    14  O    3.733586   1.459460   2.775593   0.000000
 Symmetry turned off by external request.
 Stoichiometry    C3H9O2(1+)
 Framework group  C1[X(C3H9O2)]
 Deg. of freedom    36
 Full point group                 C1      NOp   1
 Rotational constants (GHZ):      6.6217710      2.9684410      2.2597156
 Standard basis: 6-31++G(d,p) (6D, 7F)
 The following finite field(s) will be applied:
 An electric field of              0.0000  0.0000 -0.0025
 Integral buffers will be    131072 words long.
 Raffenetti 2 integral format.
 Two-electron integral symmetry is turned off.
   149 basis functions,   232 primitive gaussians,   149 cartesian basis functions
    21 alpha electrons       21 beta electrons
       nuclear repulsion energy       192.7382409738 Hartrees.
 NAtoms=   14 NActive=   14 NUniq=   14 SFac= 1.00D+00 NAtFMM=   50 NAOKFM=F Big=F
 One-electron integrals computed using PRISM.
 PrsmSu:  requested number of processors reduced to:  10 ShMem   1 Linda.
 NBasis=   149 RedAO= T  NBF=   149
 NBsUse=   149 1.00D-06 NBFU=   149
 The nuclear repulsion energy is now       192.7010147470 hartrees.
 Harris functional with IExCor=  402 diagonalized for initial guess.
 ExpMin= 3.60D-02 ExpMax= 5.48D+03 ExpMxC= 8.25D+02 IAcc=3 IRadAn=         0 AccDes= 0.00D+00
 HarFok:  IExCor=  402 AccDes= 0.00D+00 IRadAn=         0 IDoV= 1
 ScaDFX=  1.000000  1.000000  1.000000  1.000000
 FoFCou: FMM=F IPFlag=           0 FMFlag=      100000 FMFlg1=           0
         NFxFlg=           0 DoJE=T BraDBF=F KetDBF=T FulRan=T
         Omega=  0.000000  0.000000  1.000000  0.000000  0.000000 ICntrl=     500 IOpCl=  0
         NMat0=    1 NMatS0=    1 NMatT0=    0 NMatD0=    1 NMtDS0=    0 NMtDT0=    0
         I1Cent=           4 NGrid=           0.
 Symmetry not used in FoFCou.
 Requested convergence on RMS density matrix=1.00D-08 within 128 cycles.
 Requested convergence on MAX density matrix=1.00D-06.
 Requested convergence on             energy=1.00D-06.
 No special actions if energy rises.
 SCF Done:  E(RB3LYP) =  -269.891735977     A.U. after   12 cycles
             Convg  =    0.5790D-08             -V/T =  2.0087
 Range of M.O.s used for correlation:     1   149
 NBasis=   149 NAE=    21 NBE=    21 NFC=     0 NFV=     0
 NROrb=    149 NOA=    21 NOB=    21 NVA=   128 NVB=   128

 **** Warning!!: The largest alpha MO coefficient is  0.41056033D+02

 PrsmSu:  requested number of processors reduced to:  10 ShMem   1 Linda.
 PrsmSu:  requested number of processors reduced to:  17 ShMem   1 Linda.
 Symmetrizing basis deriv contribution to polar:
 IMax=3 JMax=2 DiffMx= 0.00D+00
 G2DrvN: will do     3 centers at a time, making    5 passes doing MaxLOS=2.
 Estimated number of processors is:   15
 Calling FoFCou, ICntrl=  3107 FMM=F I1Cent=   0 AccDes= 0.00D+00.
 CoulSu:  requested number of processors reduced to:  15 ShMem   1 Linda.
 Calling FoFCou, ICntrl=  3107 FMM=F I1Cent=   0 AccDes= 0.00D+00.
 CoulSu:  requested number of processors reduced to:  15 ShMem   1 Linda.
 Calling FoFCou, ICntrl=  3107 FMM=F I1Cent=   0 AccDes= 0.00D+00.
 CoulSu:  requested number of processors reduced to:  15 ShMem   1 Linda.
 Calling FoFCou, ICntrl=  3107 FMM=F I1Cent=   0 AccDes= 0.00D+00.
 CoulSu:  requested number of processors reduced to:  15 ShMem   1 Linda.
 Calling FoFCou, ICntrl=  3107 FMM=F I1Cent=   0 AccDes= 0.00D+00.
 CoulSu:  requested number of processors reduced to:  15 ShMem   1 Linda.
 FoFDir/FoFCou used for L=0 through L=2.
 End of G2Drv Frequency-dependent properties file   721 does not exist.
 End of G2Drv Frequency-dependent properties file   722 does not exist.
          IDoAtm=11111111111111
          Differentiating once with respect to nuclear coordinates.
 PrRfSu:  requested number of processors reduced to:  16 ShMem   1 Linda.
 CalDSu:  requested number of processors reduced to:  21 ShMem   1 Linda.
 PrRfSu:  requested number of processors reduced to:  16 ShMem   1 Linda.
 CalDSu:  requested number of processors reduced to:  21 ShMem   1 Linda.
          There are    45 degrees of freedom in the 1st order CPHF.  IDoFFX=5.
     39 vectors produced by pass  0 Test12= 5.97D-11 2.22D-07 XBig12= 1.10D-01 1.60D-01.
 AX will form    20 AO Fock derivatives at one time.
 PrRfSu:  requested number of processors reduced to:  16 ShMem   1 Linda.
 CalDSu:  requested number of processors reduced to:  22 ShMem   1 Linda.
 PrRfSu:  requested number of processors reduced to:  16 ShMem   1 Linda.
 CalDSu:  requested number of processors reduced to:  22 ShMem   1 Linda.
     39 vectors produced by pass  1 Test12= 5.97D-11 2.22D-07 XBig12= 1.56D-02 4.01D-02.
 PrRfSu:  requested number of processors reduced to:  16 ShMem   1 Linda.
 CalDSu:  requested number of processors reduced to:  22 ShMem   1 Linda.
 PrRfSu:  requested number of processors reduced to:  16 ShMem   1 Linda.
 CalDSu:  requested number of processors reduced to:  22 ShMem   1 Linda.
     39 vectors produced by pass  2 Test12= 5.97D-11 2.22D-07 XBig12= 5.19D-05 1.46D-03.
 PrRfSu:  requested number of processors reduced to:  16 ShMem   1 Linda.
 CalDSu:  requested number of processors reduced to:  22 ShMem   1 Linda.
 PrRfSu:  requested number of processors reduced to:  16 ShMem   1 Linda.
 CalDSu:  requested number of processors reduced to:  22 ShMem   1 Linda.
     39 vectors produced by pass  3 Test12= 5.97D-11 2.22D-07 XBig12= 1.47D-07 6.26D-05.
 PrRfSu:  requested number of processors reduced to:  16 ShMem   1 Linda.
 CalDSu:  requested number of processors reduced to:  22 ShMem   1 Linda.
 PrRfSu:  requested number of processors reduced to:  16 ShMem   1 Linda.
 CalDSu:  requested number of processors reduced to:  22 ShMem   1 Linda.
     10 vectors produced by pass  4 Test12= 5.97D-11 2.22D-07 XBig12= 1.69D-10 1.72D-06.
 PrRfSu:  requested number of processors reduced to:  17 ShMem   1 Linda.
 Inverted reduced A of dimension   166 with in-core refinement.
 End of Minotr Frequency-dependent properties file   721 does not exist.
 End of Minotr Frequency-dependent properties file   722 does not exist.

 **********************************************************************

            Population analysis using the SCF density.

 **********************************************************************

 Alpha  occ. eigenvalues --  -19.41046 -19.34911 -10.49812 -10.45222 -10.37560
 Alpha  occ. eigenvalues --   -1.27336  -1.20240  -1.01200  -0.91498  -0.80944
 Alpha  occ. eigenvalues --   -0.75263  -0.72113  -0.68292  -0.66980  -0.62472
 Alpha  occ. eigenvalues --   -0.60838  -0.58188  -0.58009  -0.56824  -0.52189
 Alpha  occ. eigenvalues --   -0.50209
 Alpha virt. eigenvalues --   -0.27468  -0.16958  -0.14817  -0.12394  -0.11975
 Alpha virt. eigenvalues --   -0.10512  -0.09012  -0.08481  -0.07959  -0.07235
 Alpha virt. eigenvalues --   -0.06399  -0.04775  -0.03912  -0.02767  -0.01358
 Alpha virt. eigenvalues --   -0.00923  -0.00718   0.00205   0.00725   0.01491
 Alpha virt. eigenvalues --    0.02524   0.03274   0.03788   0.04487   0.04922
 Alpha virt. eigenvalues --    0.05566   0.06065   0.07821   0.08418   0.08767
 Alpha virt. eigenvalues --    0.09571   0.11720   0.12523   0.14229   0.15283
 Alpha virt. eigenvalues --    0.15743   0.16852   0.19387   0.20154   0.24127
 Alpha virt. eigenvalues --    0.24975   0.26981   0.42424   0.48401   0.50934
 Alpha virt. eigenvalues --    0.53800   0.56370   0.58270   0.60574   0.61183
 Alpha virt. eigenvalues --    0.67307   0.75737   0.77529   0.79898   0.81278
 Alpha virt. eigenvalues --    0.82005   0.83003   0.87505   0.89479   0.92229
 Alpha virt. eigenvalues --    0.96477   0.98880   1.01379   1.02120   1.03065
 Alpha virt. eigenvalues --    1.06873   1.08141   1.12523   1.13978   1.22032
 Alpha virt. eigenvalues --    1.23752   1.31206   1.33780   1.35022   1.41736
 Alpha virt. eigenvalues --    1.43504   1.47697   1.52969   1.57248   1.60904
 Alpha virt. eigenvalues --    1.68172   1.71183   1.74702   1.82069   1.86303
 Alpha virt. eigenvalues --    1.88491   1.92510   1.96755   1.98960   2.03608
 Alpha virt. eigenvalues --    2.07558   2.10608   2.12394   2.13496   2.17646
 Alpha virt. eigenvalues --    2.20164   2.24997   2.28979   2.34147   2.37951
 Alpha virt. eigenvalues --    2.39207   2.42368   2.47565   2.48211   2.49824
 Alpha virt. eigenvalues --    2.50557   2.55929   2.66283   2.68452   2.71095
 Alpha virt. eigenvalues --    2.72132   2.77417   2.81772   2.88076   3.12518
 Alpha virt. eigenvalues --    3.15623   3.22801   3.27746   3.29614   3.31198
 Alpha virt. eigenvalues --    3.32898   3.37058   3.39993   4.06711   4.12397
 Alpha virt. eigenvalues --    4.21149   4.32191   4.45719
          Condensed to atoms (all electrons):
              1          2          3          4          5          6
     1  C    6.682765  -0.044764  -0.023278  -0.069823   0.023904   0.005418
     2  O   -0.044764   8.185777   0.010146   0.000331   0.286987   0.281232
     3  H   -0.023278   0.010146   0.519312  -0.033339  -0.000886  -0.001089
     4  H   -0.069823   0.000331  -0.033339   0.461665  -0.000335   0.000078
     5  H    0.023904   0.286987  -0.000886  -0.000335   0.318517  -0.015856
     6  H    0.005418   0.281232  -0.001089   0.000078  -0.015856   0.314005
     7  H    0.345232  -0.017133  -0.023096   0.006851   0.002903   0.001108
     8  H   -0.004037  -0.000020  -0.019020   0.009148  -0.000280   0.000198
     9  H   -0.040360   0.005243  -0.000309   0.002509  -0.000398  -0.000032
    10  H   -0.052783  -0.004018  -0.000397   0.003636   0.000631   0.000199
    11  H   -0.118733   0.000616   0.002300  -0.003826  -0.000445   0.000246
    12  C   -0.302932  -0.055791   0.333120   0.445124  -0.007312   0.000386
    13  C   -0.365590   0.044350   0.028598  -0.017542  -0.008865  -0.002692
    14  O   -0.241351   0.014149  -0.006212  -0.037132  -0.000745   0.000639
              7          8          9         10         11         12
     1  C    0.345232  -0.004037  -0.040360  -0.052783  -0.118733  -0.302932
     2  O   -0.017133  -0.000020   0.005243  -0.004018   0.000616  -0.055791
     3  H   -0.023096  -0.019020  -0.000309  -0.000397   0.002300   0.333120
     4  H    0.006851   0.009148   0.002509   0.003636  -0.003826   0.445124
     5  H    0.002903  -0.000280  -0.000398   0.000631  -0.000445  -0.007312
     6  H    0.001108   0.000198  -0.000032   0.000199   0.000246   0.000386
     7  H    0.517207   0.002379  -0.006237   0.008274  -0.014920   0.008286
     8  H    0.002379   0.351071   0.000714   0.000526  -0.000229  -0.002299
     9  H   -0.006237   0.000714   0.455493  -0.019830  -0.015703   0.006078
    10  H    0.008274   0.000526  -0.019830   0.465957  -0.021497   0.000779
    11  H   -0.014920  -0.000229  -0.015703  -0.021497   0.446396   0.019384
    12  C    0.008286  -0.002299   0.006078   0.000779   0.019384   5.364083
    13  C   -0.050230  -0.014233   0.391115   0.405770   0.467734   0.123203
    14  O   -0.031418   0.253417  -0.003111  -0.003584   0.004665   0.206028
             13         14
     1  C   -0.365590  -0.241351
     2  O    0.044350   0.014149
     3  H    0.028598  -0.006212
     4  H   -0.017542  -0.037132
     5  H   -0.008865  -0.000745
     6  H   -0.002692   0.000639
     7  H   -0.050230  -0.031418
     8  H   -0.014233   0.253417
     9  H    0.391115  -0.003111
    10  H    0.405770  -0.003584
    11  H    0.467734   0.004665
    12  C    0.123203   0.206028
    13  C    5.487357   0.093846
    14  O    0.093846   8.142862
 Mulliken atomic charges:
              1
     1  C    0.206332
     2  O   -0.707103
     3  H    0.214150
     4  H    0.232655
     5  H    0.402179
     6  H    0.416160
     7  H    0.250795
     8  H    0.422665
     9  H    0.224827
    10  H    0.216335
    11  H    0.234014
    12  C   -0.138135
    13  C   -0.582821
    14  O   -0.392053
 Sum of Mulliken atomic charges =   1.00000
 Mulliken charges with hydrogens summed into heavy atoms:
              1
     1  C    0.457127
     2  O    0.111236
    12  C    0.308670
    13  C    0.092356
    14  O    0.030612
 Sum of Mulliken charges with hydrogens summed into heavy atoms =   1.00000
 APT atomic charges:
              1
     1  C   -0.049471
     2  O   -1.514068
     3  H    0.495513
     4  H    0.511178
     5  H    0.802770
     6  H    0.810603
     7  H    0.408938
     8  H    0.712001
     9  H    0.466310
    10  H    0.467594
    11  H    0.473698
    12  C   -0.595812
    13  C   -1.282136
    14  O   -0.707120
 Sum of APT charges=   1.00000
 APT Atomic charges with hydrogens summed into heavy atoms:
              1
     1  C    0.359467
     2  O    0.099306
     3  H    0.000000
     4  H    0.000000
     5  H    0.000000
     6  H    0.000000
     7  H    0.000000
     8  H    0.000000
     9  H    0.000000
    10  H    0.000000
    11  H    0.000000
    12  C    0.410879
    13  C    0.125467
    14  O    0.004881
 Sum of APT charges=   1.00000
 Electronic spatial extent (au):  <R**2>=            574.4541
 Charge=              1.0000 electrons
 Dipole moment (field-independent basis, Debye):
    X=              1.2602    Y=              0.2531    Z=              3.0298  Tot=              3.2911
 Quadrupole moment (field-independent basis, Debye-Ang):
   XX=            -20.8866   YY=            -24.0165   ZZ=            -14.7851
   XY=              3.0114   XZ=             -2.8825   YZ=             -2.0625
 Traceless Quadrupole moment (field-independent basis, Debye-Ang):
   XX=             -0.9905   YY=             -4.1204   ZZ=              5.1109
   XY=              3.0114   XZ=             -2.8825   YZ=             -2.0625
 Octapole moment (field-independent basis, Debye-Ang**2):
  XXX=            -11.5832  YYY=             25.2100  ZZZ=             36.1106  XYY=             -4.6754
  XXY=              9.6283  XXZ=            -10.6173  XZZ=             -8.8068  YZZ=             16.4188
  YYZ=              1.0909  XYZ=             -2.4674
 Hexadecapole moment (field-independent basis, Debye-Ang**3):
 XXXX=           -199.0557 YYYY=            -73.3913 ZZZZ=           -170.2605 XXXY=              4.2651
 XXXZ=             18.4484 YYYX=             -3.6412 YYYZ=             -9.6177 ZZZX=              6.3733
 ZZZY=            -16.8933 XXYY=            -47.2197 XXZZ=            -87.3312 YYZZ=            -51.6165
 XXYZ=            -11.0526 YYXZ=              6.6182 ZZXY=             15.4075
 N-N= 1.927010147470D+02 E-N=-1.007305340681D+03  KE= 2.675668362886D+02
  Exact polarizability:   0.000   0.000   0.000   0.000   0.000   0.000
 Approx polarizability:  62.548   1.522  53.042  -8.895   0.455  71.528
 PrsmSu:  requested number of processors reduced to:  10 ShMem   1 Linda.
 PrsmSu:  requested number of processors reduced to:  10 ShMem   1 Linda.
 Calling FoFJK, ICntrl=    100147 FMM=F ISym2X=0 I1Cent= 0 IOpClX= 0 NMat=1 NMatS=1 NMatT=0.
 CoulSu:  requested number of processors reduced to:  10 ShMem   1 Linda.
 CalDSu:  requested number of processors reduced to:  23 ShMem   1 Linda.
 -------------------------------------------------------------------
 Center     Atomic                   Forces (Hartrees/Bohr)
 Number     Number              X              Y              Z
 -------------------------------------------------------------------
      1        6           0.000955597   -0.011805912    0.002348038
      2        8           0.002008791   -0.000519795   -0.011402651
      3        1           0.009301704    0.006916978    0.005737322
      4        1           0.001012300   -0.012885734    0.001414242
      5        1          -0.002927417   -0.006744630    0.005152867
      6        1           0.000952531    0.007237605    0.005166642
      7        1          -0.000821455    0.012522898    0.001136421
      8        1           0.006304283    0.011108642   -0.002523533
      9        1          -0.007345611    0.006180212   -0.016840246
     10        1           0.002558127   -0.014411637   -0.000013698
     11        1          -0.012263517    0.004230857    0.013391489
     12        6          -0.010427773    0.005407735   -0.005549223
     13        6           0.016256730    0.003426177    0.003653685
     14        8          -0.005564290   -0.010663396    0.000828646
 -------------------------------------------------------------------
 Cartesian Forces:  Max     0.016840246 RMS     0.007937997
 -----------------------------------------------------------------------------------------------
                       Internal Coordinate Forces (Hartree/Bohr or radian)
  Cent   Atom   N1       Length/X         N2         Alpha/Y        N3         Beta/Z          J
 -----------------------------------------------------------------------------------------------
      1  C 
      2  O        1  -0.001083(     1)
      3  H        1   0.010154(     2)      2  -0.016629(    14)
      4  H        1   0.010205(     3)      2  -0.005721(    15)      3   0.027887(    26)     0
      5  H        2   0.008976(     4)      1  -0.000148(    16)      4   0.004948(    27)     0
      6  H        2   0.008941(     5)      1  -0.000239(    17)      4  -0.000244(    28)     0
      7  H        1   0.012600(     6)      2  -0.000247(    18)      5   0.000234(    29)     0
      8  H        1   0.008631(     7)      2  -0.023546(    19)      5  -0.027662(    30)     0
      9  H        1   0.014175(     8)      2   0.041803(    20)      5   0.025366(    31)     0
     10  H        1   0.011066(     9)      2  -0.006264(    21)      5  -0.037762(    32)     0
     11  H        1   0.013550(    10)      2  -0.041329(    22)      5   0.027590(    33)     0
     12  C        1  -0.012507(    11)      2   0.018067(    23)      5   0.007544(    34)     0
     13  C        1  -0.015990(    12)     12  -0.015200(    24)      2   0.036488(    35)     0
     14  O       12  -0.002521(    13)      1  -0.004288(    25)     13  -0.032008(    36)     0
 -----------------------------------------------------------------------------------------------
 Internal  Forces:  Max     0.041803306 RMS     0.019201415

 GradGradGradGradGradGradGradGradGradGradGradGradGradGradGradGradGradGrad
 Berny optimization.
 Search for a saddle point.
 Step number   1 out of a maximum of  100
 All quantities printed in internal units (Hartrees-Bohrs-Radians)
 Swaping is turned off.
 Second derivative matrix not updated -- analytic derivatives used.
 ITU=  0
     Eigenvalues ---   -0.08519  -0.00352   0.00028   0.00367   0.01049
     Eigenvalues ---    0.01918   0.03425   0.03977   0.05337   0.06101
     Eigenvalues ---    0.06853   0.07311   0.07545   0.09543   0.12452
     Eigenvalues ---    0.20398   0.28853   0.29624   0.31383   0.40250
     Eigenvalues ---    0.48524   0.51607   0.56415   0.56528   0.68141
     Eigenvalues ---    0.97303   1.20864   1.34462   1.44274   2.85733
     Eigenvalues ---    3.43400   6.58235   7.16202  12.58606  20.37329
 Eigenvectors required to have negative eigenvalues:
                          D6        A8        D8        A7        A9
   1                    0.55232   0.49335  -0.46288  -0.32873  -0.32174
                          B7        B9        D7        A12       A5
   1                    0.07304  -0.07101  -0.06523  -0.05880  -0.05392
 RFO step:  Lambda0=2.302335128D-07 Lambda=-5.19685436D-03.
 Linear search not attempted -- option 19 set.
 Maximum step size (   0.300) exceeded in Quadratic search.
    -- Step size scaled by   0.397
 Variable       Old X    -DE/DX   Delta X   Delta X   Delta X     New X
                                 (Linear)    (Quad)   (Total)
    B1        4.11358   0.01015   0.00000   0.01219   0.01219   4.12577
    B2        4.10690   0.01021   0.00000  -0.01063  -0.01063   4.09627
    B3        1.81414   0.00898   0.00000   0.00648   0.00648   1.82061
    B4        1.81414   0.00894   0.00000   0.00645   0.00645   1.82059
    B5        2.02201   0.01260   0.00000   0.01117   0.01117   2.03318
    B6        4.67707   0.00863   0.00000   0.05210   0.05210   4.72917
    B7        3.93685   0.01418   0.00000   0.00538   0.00538   3.94223
    B8        4.03435   0.01107   0.00000   0.00787   0.00787   4.04223
    B9        3.91316   0.01355   0.00000   0.00574   0.00574   3.91890
   B10        2.77878  -0.01251   0.00000   0.01017   0.01017   2.78894
   B11        2.77996  -0.01599   0.00000  -0.01054  -0.01054   2.76942
   B12        2.75798  -0.00252   0.00000  -0.01762  -0.01762   2.74036
    A1        1.39701  -0.01663   0.00000  -0.06359  -0.06359   1.33342
    A2        1.56871  -0.00572   0.00000   0.09817   0.09817   1.66688
    A3        2.19130  -0.00015   0.00000   0.00960   0.00960   2.20090
    A4        2.20156  -0.00024   0.00000  -0.01463  -0.01463   2.18693
    A5        1.49019  -0.00025   0.00000  -0.07261  -0.07261   1.41759
    A6        2.35419  -0.02355   0.00000  -0.12788  -0.12788   2.22631
    A7        2.18373   0.04180   0.00000   0.05599   0.05599   2.23971
    A8        1.71141  -0.00626   0.00000   0.05158   0.05158   1.76299
    A9        1.33903  -0.04133   0.00000   0.05148   0.05148   1.39051
   A10        1.64322   0.01807   0.00000   0.02864   0.02864   1.67186
   A11        2.16757  -0.01520   0.00000  -0.00050  -0.00050   2.16708
   A12        1.45276  -0.00429   0.00000   0.06562   0.06562   1.51837
    D1        0.83133   0.02789   0.00000  -0.03116  -0.03116   0.80017
    D2       -1.17277   0.00495   0.00000   0.02863   0.02863  -1.14414
    D3        2.29410  -0.00024   0.00000   0.04277   0.04277   2.33687
    D4        2.63353   0.00023   0.00000   0.01350   0.01350   2.64703
    D5       -2.34647  -0.02766   0.00000  -0.11553  -0.11553  -2.46199
    D6        0.87453   0.02537   0.00000   0.04509   0.04509   0.91962
    D7        0.09319  -0.03776   0.00000   0.01993   0.01993   0.11312
    D8        0.87724   0.02759   0.00000   0.02640   0.02640   0.90364
    D9       -1.62226   0.00754   0.00000   0.00502   0.00502  -1.61724
   D10       -1.84700   0.03649   0.00000  -0.09046  -0.09046  -1.93746
   D11        1.45880  -0.03201   0.00000   0.09219   0.09219   1.55099
         Item               Value     Threshold  Converged?
 Maximum Force            0.041803     0.000450     NO 
 RMS     Force            0.019473     0.000300     NO 
 Maximum Displacement     0.127879     0.001800     NO 
 RMS     Displacement     0.050709     0.001200     NO 
 Predicted change in Energy=-1.894834D-03
 GradGradGradGradGradGradGradGradGradGradGradGradGradGradGradGradGradGrad

 ---------------------------------------------------------------------------------------------------
                            Z-MATRIX (ANGSTROMS AND DEGREES)
   CD    Cent   Atom    N1       Length/X        N2       Alpha/Y        N3        Beta/Z          J
 ---------------------------------------------------------------------------------------------------
      1      1  C 
      2      2  O        1   2.348235(     1)
      3      3  H        1   2.183264(     2)      2   76.400(    14)
      4      4  H        1   2.167653(     3)      2   95.505(    15)      3   45.846(    26)      0
      5      5  H        2   0.963427(     4)      1  126.103(    16)      4  -65.554(    27)      0
      6      6  H        2   0.963412(     5)      1  125.302(    17)      4  133.893(    28)      0
      7      7  H        1   1.075911(     6)      2   81.222(    18)      5  151.663(    29)      0
      8      8  H        1   2.502568(     7)      2  127.558(    19)      5 -141.062(    30)      0
      9      9  H        1   2.086138(     8)      2  128.326(    20)      5   52.690(    31)      0
     10     10  H        1   2.139054(     9)      2  101.012(    21)      5    6.481(    32)      0
     11     11  H        1   2.073792(    10)      2   79.670(    22)      5   51.775(    33)      0
     12     12  C        1   1.475846(    11)      2   95.791(    23)      5  -92.661(    34)      0
     13     13  C        1   1.465513(    12)     12  124.164(    24)      2 -111.008(    35)      0
     14     14  O       12   1.450138(    13)      1   86.996(    25)     13   88.865(    36)      0
 ---------------------------------------------------------------------------------------------------
                         Z-Matrix orientation:                         
 ---------------------------------------------------------------------
 Center     Atomic      Atomic             Coordinates (Angstroms)
 Number     Number       Type             X           Y           Z
 ---------------------------------------------------------------------
      1          6           0        0.000000    0.000000    0.000000
      2          8           0        0.000000    0.000000    2.348235
      3          1           0        2.122044    0.000000    0.513393
      4          1           0        1.502994   -1.548057   -0.207965
      5          1           0       -0.284030   -0.724745    2.915917
      6          1           0        0.026803    0.785803    2.904974
      7          1           0       -0.128410    1.055525    0.164197
      8          1           0        1.723915    0.981768   -1.525483
      9          1           0       -1.573877   -0.448604   -1.293692
     10          1           0       -0.981904   -1.855929   -0.408589
     11          1           0       -1.952845   -0.590532    0.371860
     12          6           0        1.390480   -0.471716   -0.148901
     13          6           0       -1.180591   -0.794860   -0.349471
     14          8           0        1.346925    0.062907   -1.496187
 ---------------------------------------------------------------------
                    Distance matrix (angstroms):
                    1          2          3          4          5
     1  C    0.000000
     2  O    2.348235   0.000000
     3  H    2.183264   2.805301   0.000000
     4  H    2.167653   3.345090   1.816607   0.000000
     5  H    3.018029   0.963427   3.476574   3.691874   0.000000
     6  H    3.009498   0.963412   3.275238   4.161302   1.542236
     7  H    1.075911   2.429125   2.510102   3.094935   3.281089
     8  H    2.502568   4.352177   2.297692   2.860887   5.164307
     9  H    2.086138   3.992739   4.138433   3.443070   4.411435
    10  H    2.139054   3.465355   3.732159   2.511922   3.580356
    11  H    2.073792   2.840491   4.119888   3.632613   3.045519
    12  C    1.475846   2.896832   1.093771   1.083817   3.501587
    13  C    1.465513   3.050117   3.504816   2.790870   3.386960
    14  O    2.014135   4.074033   2.154804   2.068594   4.769389
                    6          7          8          9         10
     6  H    0.000000
     7  H    2.758388   0.000000
     8  H    4.748425   2.508299   0.000000
     9  H    4.659907   2.545038   3.602099   0.000000
    10  H    4.356138   3.087572   4.076939   1.764767   0.000000
    11  H    3.497138   2.466008   4.426128   1.714008   1.775685
    12  C    3.573111   2.176584   2.029476   3.177812   2.758929
    13  C    3.814146   2.189718   3.602161   1.079870   1.081129
    14  O    4.651400   2.432854   0.993622   2.972159   3.207529
                   11         12         13         14
    11  H    0.000000
    12  C    3.385725   0.000000
    13  C    1.076311   2.599049   0.000000
    14  O    3.847735   1.450138   2.905006   0.000000
 Symmetry turned off by external request.
 Stoichiometry    C3H9O2(1+)
 Framework group  C1[X(C3H9O2)]
 Deg. of freedom    36
 Full point group                 C1      NOp   1
 Rotational constants (GHZ):      6.2783364      2.9260267      2.2149089
 Standard basis: 6-31++G(d,p) (6D, 7F)
 The following finite field(s) will be applied:
 An electric field of              0.0000  0.0000 -0.0025
 Integral buffers will be    131072 words long.
 Raffenetti 2 integral format.
 Two-electron integral symmetry is turned off.
   149 basis functions,   232 primitive gaussians,   149 cartesian basis functions
    21 alpha electrons       21 beta electrons
       nuclear repulsion energy       190.9587435065 Hartrees.
 NAtoms=   14 NActive=   14 NUniq=   14 SFac= 1.00D+00 NAtFMM=   50 NAOKFM=F Big=F
 One-electron integrals computed using PRISM.
 PrsmSu:  requested number of processors reduced to:  10 ShMem   1 Linda.
 NBasis=   149 RedAO= T  NBF=   149
 NBsUse=   149 1.00D-06 NBFU=   149
 The nuclear repulsion energy is now       190.9244413545 hartrees.
 Initial guess read from the read-write file.
 B after Tr=     0.000000    0.000000    0.000000
         Rot=    1.000000    0.000000    0.000000    0.000000 Ang=   0.00 deg.
 Harris functional with IExCor=  402 diagonalized for initial guess.
 ExpMin= 3.60D-02 ExpMax= 5.48D+03 ExpMxC= 8.25D+02 IAcc=3 IRadAn=         0 AccDes= 0.00D+00
 HarFok:  IExCor=  402 AccDes= 0.00D+00 IRadAn=         0 IDoV= 1
 ScaDFX=  1.000000  1.000000  1.000000  1.000000
 FoFCou: FMM=F IPFlag=           0 FMFlag=      100000 FMFlg1=           0
         NFxFlg=           0 DoJE=T BraDBF=F KetDBF=T FulRan=T
         Omega=  0.000000  0.000000  1.000000  0.000000  0.000000 ICntrl=     500 IOpCl=  0
         NMat0=    1 NMatS0=    1 NMatT0=    0 NMatD0=    1 NMtDS0=    0 NMtDT0=    0
         I1Cent=           4 NGrid=           0.
 Symmetry not used in FoFCou.
 Requested convergence on RMS density matrix=1.00D-08 within 128 cycles.
 Requested convergence on MAX density matrix=1.00D-06.
 Requested convergence on             energy=1.00D-06.
 No special actions if energy rises.
 SCF Done:  E(RB3LYP) =  -269.892206030     A.U. after   12 cycles
             Convg  =    0.1603D-08             -V/T =  2.0093
 PrsmSu:  requested number of processors reduced to:  10 ShMem   1 Linda.
 PrsmSu:  requested number of processors reduced to:  23 ShMem   1 Linda.
 Calling FoFJK, ICntrl=      2127 FMM=F ISym2X=0 I1Cent= 0 IOpClX= 0 NMat=1 NMatS=1 NMatT=0.
 CoulSu:  requested number of processors reduced to:  16 ShMem   1 Linda.
 -------------------------------------------------------------------
 Center     Atomic                   Forces (Hartrees/Bohr)
 Number     Number              X              Y              Z
 -------------------------------------------------------------------
      1        6           0.001187285   -0.006081033    0.002734593
      2        8           0.000965395   -0.001735508   -0.008380647
      3        1          -0.000581505   -0.002009570   -0.003401336
      4        1           0.002136811   -0.003125821    0.000245704
      5        1          -0.001476755   -0.004174304    0.003270675
      6        1           0.000046620    0.004489891    0.003153636
      7        1          -0.000717317    0.007666413    0.001116061
      8        1          -0.005934301   -0.017862234    0.000647555
      9        1          -0.004533665    0.005047173   -0.011660958
     10        1           0.001485796   -0.006497168   -0.000226433
     11        1          -0.010340456    0.002917274    0.009397363
     12        6          -0.000520463    0.006454215    0.005688738
     13        6           0.012278799   -0.002017154    0.002506842
     14        8           0.006003756    0.016927826   -0.002591792
 -------------------------------------------------------------------
 Cartesian Forces:  Max     0.017862234 RMS     0.006212461
 -----------------------------------------------------------------------------------------------
                       Internal Coordinate Forces (Hartree/Bohr or radian)
  Cent   Atom   N1       Length/X         N2         Alpha/Y        N3         Beta/Z          J
 -----------------------------------------------------------------------------------------------
      1  C 
      2  O        1  -0.001956(     1)
      3  H        1  -0.001365(     2)      2   0.013075(    14)
      4  H        1   0.003690(     3)      2  -0.002468(    15)      3  -0.008058(    26)     0
      5  H        2   0.005503(     4)      1   0.000064(    16)      4   0.010527(    27)     0
      6  H        2   0.005486(     5)      1  -0.000037(    17)      4   0.000158(    28)     0
      7  H        1   0.007777(     6)      2   0.000146(    18)      5   0.000430(    29)     0
      8  H        1  -0.011490(     7)      2   0.037920(    19)      5   0.047181(    30)     0
      9  H        1   0.009566(     8)      2   0.028787(    20)      5   0.018855(    31)     0
     10  H        1   0.004998(     9)      2  -0.002999(    21)      5  -0.017267(    32)     0
     11  H        1   0.010592(    10)      2  -0.029868(    22)      5   0.022305(    33)     0
     12  C        1  -0.002620(    11)      2  -0.013634(    23)      5  -0.081812(    34)     0
     13  C        1  -0.009395(    12)     12  -0.022372(    24)      2  -0.037531(    35)     0
     14  O       12   0.008468(    13)      1   0.002610(    25)     13   0.043845(    36)     0
 -----------------------------------------------------------------------------------------------
 Internal  Forces:  Max     0.081812157 RMS     0.022535802

 GradGradGradGradGradGradGradGradGradGradGradGradGradGradGradGradGradGrad
 Berny optimization.
 Search for a saddle point.
 Step number   2 out of a maximum of  100
 All quantities printed in internal units (Hartrees-Bohrs-Radians)
 Swaping is turned off.
 Update second derivatives using D2CorN and points    1    2
 ITU=  0  0
     Eigenvalues ---   -0.08519   0.00019   0.00325   0.01023   0.01909
     Eigenvalues ---    0.03309   0.03423   0.04434   0.05348   0.06227
     Eigenvalues ---    0.06907   0.07388   0.07544   0.09901   0.12480
     Eigenvalues ---    0.20399   0.28854   0.29632   0.31422   0.40245
     Eigenvalues ---    0.48531   0.51602   0.56415   0.56526   0.68148
     Eigenvalues ---    0.97342   1.20865   1.34644   1.44278   2.85911
     Eigenvalues ---    3.43400   6.58230   7.16219  12.58761  20.37715
 Eigenvectors required to have negative eigenvalues:
                          D6        A8        D8        A7        A9
   1                    0.55280   0.49396  -0.46260  -0.32812  -0.32111
                          B7        B9        D7        A12       A5
   1                    0.07300  -0.07101  -0.06496  -0.05821  -0.05478
 RFO step:  Lambda0=8.610007872D-07 Lambda=-5.43748974D-03.
 Linear search not attempted -- option 19 set.
 Variable       Old X    -DE/DX   Delta X   Delta X   Delta X     New X
                                 (Linear)    (Quad)   (Total)
    B1        4.12577  -0.00137   0.00000   0.00653   0.00653   4.13230
    B2        4.09627   0.00369   0.00000   0.03829   0.03829   4.13457
    B3        1.82061   0.00550   0.00000   0.01048   0.01048   1.83109
    B4        1.82059   0.00549   0.00000   0.01043   0.01043   1.83101
    B5        2.03318   0.00778   0.00000   0.02018   0.02018   2.05335
    B6        4.72917  -0.01149   0.00000   0.04544   0.04544   4.77461
    B7        3.94223   0.00957   0.00000   0.01418   0.01418   3.95640
    B8        4.04223   0.00500   0.00000   0.02495   0.02495   4.06717
    B9        3.91890   0.01059   0.00000   0.03768   0.03768   3.95658
   B10        2.78894  -0.00262   0.00000  -0.01071  -0.01071   2.77824
   B11        2.76942  -0.00940   0.00000   0.00886   0.00886   2.77827
   B12        2.74036   0.00847   0.00000   0.02692   0.02692   2.76729
    A1        1.33342   0.01308   0.00000   0.04265   0.04265   1.37608
    A2        1.66688  -0.00247   0.00000  -0.08731  -0.08731   1.57957
    A3        2.20090   0.00006   0.00000   0.00017   0.00017   2.20108
    A4        2.18693  -0.00004   0.00000  -0.02011  -0.02011   2.16682
    A5        1.41759   0.00015   0.00000   0.03816   0.03816   1.45575
    A6        2.22631   0.03792   0.00000   0.08875   0.08875   2.31506
    A7        2.23971   0.02879   0.00000  -0.01339  -0.01339   2.22633
    A8        1.76299  -0.00300   0.00000  -0.02145  -0.02145   1.74154
    A9        1.39051  -0.02987   0.00000  -0.02276  -0.02276   1.36775
   A10        1.67186  -0.01363   0.00000  -0.03670  -0.03670   1.63516
   A11        2.16708  -0.02237   0.00000   0.01142   0.01142   2.17850
   A12        1.51837   0.00261   0.00000  -0.06005  -0.06005   1.45833
    D1        0.80017  -0.00806   0.00000   0.02673   0.02673   0.82690
    D2       -1.14414   0.01053   0.00000  -0.00684  -0.00684  -1.15098
    D3        2.33687   0.00016   0.00000   0.11964   0.11964   2.45651
    D4        2.64703   0.00043   0.00000   0.01393   0.01393   2.66096
    D5       -2.46199   0.04718   0.00000   0.14959   0.14959  -2.31240
    D6        0.91962   0.01885   0.00000   0.00748   0.00748   0.92711
    D7        0.11312  -0.01727   0.00000   0.00932   0.00932   0.12244
    D8        0.90364   0.02231   0.00000   0.01444   0.01444   0.91808
    D9       -1.61724  -0.08181   0.00000   0.01259   0.01259  -1.60465
   D10       -1.93746  -0.03753   0.00000   0.05281   0.05281  -1.88465
   D11        1.55099   0.04384   0.00000  -0.09020  -0.09020   1.46079
         Item               Value     Threshold  Converged?
 Maximum Force            0.081812     0.000450     NO 
 RMS     Force            0.022853     0.000300     NO 
 Maximum Displacement     0.149594     0.001800     NO 
 RMS     Displacement     0.048362     0.001200     NO 
 Predicted change in Energy=-2.940853D-03
 GradGradGradGradGradGradGradGradGradGradGradGradGradGradGradGradGradGrad

 ---------------------------------------------------------------------------------------------------
                            Z-MATRIX (ANGSTROMS AND DEGREES)
   CD    Cent   Atom    N1       Length/X        N2       Alpha/Y        N3        Beta/Z          J
 ---------------------------------------------------------------------------------------------------
      1      1  C 
      2      2  O        1   2.348235(     1)
      3      3  H        1   2.186719(     2)      2   78.843(    14)
      4      4  H        1   2.187918(     3)      2   90.503(    15)      3   47.378(    26)      0
      5      5  H        2   0.968973(     4)      1  126.112(    16)      4  -65.946(    27)      0
      6      6  H        2   0.968929(     5)      1  124.149(    17)      4  140.747(    28)      0
      7      7  H        1   1.086589(     6)      2   83.408(    18)      5  152.462(    29)      0
      8      8  H        1   2.526615(     7)      2  132.643(    19)      5 -132.491(    30)      0
      9      9  H        1   2.093639(     8)      2  127.559(    20)      5   53.119(    31)      0
     10     10  H        1   2.152256(     9)      2   99.783(    21)      5    7.015(    32)      0
     11     11  H        1   2.093731(    10)      2   78.366(    22)      5   52.602(    33)      0
     12     12  C        1   1.470181(    11)      2   93.688(    23)      5  -91.940(    34)      0
     13     13  C        1   1.470199(    12)     12  124.819(    24)      2 -107.982(    35)      0
     14     14  O       12   1.464384(    13)      1   83.556(    25)     13   83.697(    36)      0
 ---------------------------------------------------------------------------------------------------
                         Z-Matrix orientation:                         
 ---------------------------------------------------------------------
 Center     Atomic      Atomic             Coordinates (Angstroms)
 Number     Number       Type             X           Y           Z
 ---------------------------------------------------------------------
      1          6           0        0.000000    0.000000    0.000000
      2          8           0        0.000000    0.000000    2.348235
      3          1           0        2.145394    0.000000    0.423112
      4          1           0        1.481516   -1.609884   -0.019205
      5          1           0       -0.309931   -0.718829    2.919320
      6          1           0       -0.047131    0.800477    2.892146
      7          1           0       -0.079329    1.076486    0.124736
      8          1           0        1.755522    0.610200   -1.711602
      9          1           0       -1.613439   -0.389048   -1.276238
     10          1           0       -1.071329   -1.830499   -0.365694
     11          1           0       -1.989160   -0.498692    0.422205
     12          6           0        1.366133   -0.534947   -0.094566
     13          6           0       -1.220957   -0.754796   -0.317856
     14          8           0        1.235472   -0.167428   -1.506047
 ---------------------------------------------------------------------
                    Distance matrix (angstroms):
                    1          2          3          4          5
     1  C    0.000000
     2  O    2.348235   0.000000
     3  H    2.186719   2.882501   0.000000
     4  H    2.187918   3.223568   1.796692   0.000000
     5  H    3.022449   0.968973   3.574407   3.555023   0.000000
     6  H    3.001249   0.968929   3.397655   4.077078   1.542106
     7  H    1.086589   2.471652   2.489426   3.110231   3.329569
     8  H    2.526615   4.465028   2.254185   2.805006   5.241932
     9  H    2.093639   3.986395   4.143425   3.556587   4.405745
    10  H    2.152256   3.444399   3.784210   2.585680   3.550613
    11  H    2.093731   2.813369   4.164521   3.670856   3.017259
    12  C    1.470181   2.849520   1.077686   1.083734   3.453478
    13  C    1.470199   3.027953   3.528607   2.850216   3.363119
    14  O    1.955148   4.050916   2.139544   2.086124   4.719765
                    6          7          8          9         10
     6  H    0.000000
     7  H    2.781326   0.000000
     8  H    4.947753   2.637468   0.000000
     9  H    4.609090   2.542442   3.540894   0.000000
    10  H    4.310979   3.110490   3.969832   1.789065   0.000000
    11  H    3.399989   2.493418   4.450328   1.742957   1.799141
    12  C    3.563864   2.175815   2.019354   3.208657   2.773659
    13  C    3.755111   2.202907   3.558816   1.098321   1.087113
    14  O    4.682523   2.436284   0.957816   2.866744   3.063909
                   11         12         13         14
    11  H    0.000000
    12  C    3.395049   0.000000
    13  C    1.097003   2.605998   0.000000
    14  O    3.771757   1.464384   2.791208   0.000000
 Symmetry turned off by external request.
 Stoichiometry    C3H9O2(1+)
 Framework group  C1[X(C3H9O2)]
 Deg. of freedom    36
 Full point group                 C1      NOp   1
 Rotational constants (GHZ):      6.4790838      2.9669712      2.2458246
 Standard basis: 6-31++G(d,p) (6D, 7F)
 The following finite field(s) will be applied:
 An electric field of              0.0000  0.0000 -0.0025
 Integral buffers will be    131072 words long.
 Raffenetti 2 integral format.
 Two-electron integral symmetry is turned off.
   149 basis functions,   232 primitive gaussians,   149 cartesian basis functions
    21 alpha electrons       21 beta electrons
       nuclear repulsion energy       191.7950663876 Hartrees.
 NAtoms=   14 NActive=   14 NUniq=   14 SFac= 1.00D+00 NAtFMM=   50 NAOKFM=F Big=F
 One-electron integrals computed using PRISM.
 PrsmSu:  requested number of processors reduced to:  10 ShMem   1 Linda.
 NBasis=   149 RedAO= T  NBF=   149
 NBsUse=   149 1.00D-06 NBFU=   149
 The nuclear repulsion energy is now       191.7588226393 hartrees.
 Initial guess read from the read-write file.
 B after Tr=     0.000000    0.000000    0.000000
         Rot=    1.000000    0.000000    0.000000    0.000000 Ang=   0.00 deg.
 Harris functional with IExCor=  402 diagonalized for initial guess.
 ExpMin= 3.60D-02 ExpMax= 5.48D+03 ExpMxC= 8.25D+02 IAcc=3 IRadAn=         0 AccDes= 0.00D+00
 HarFok:  IExCor=  402 AccDes= 0.00D+00 IRadAn=         0 IDoV= 1
 ScaDFX=  1.000000  1.000000  1.000000  1.000000
 FoFCou: FMM=F IPFlag=           0 FMFlag=      100000 FMFlg1=           0
         NFxFlg=           0 DoJE=T BraDBF=F KetDBF=T FulRan=T
         Omega=  0.000000  0.000000  1.000000  0.000000  0.000000 ICntrl=     500 IOpCl=  0
         NMat0=    1 NMatS0=    1 NMatT0=    0 NMatD0=    1 NMtDS0=    0 NMtDT0=    0
         I1Cent=           4 NGrid=           0.
 Symmetry not used in FoFCou.
 Requested convergence on RMS density matrix=1.00D-08 within 128 cycles.
 Requested convergence on MAX density matrix=1.00D-06.
 Requested convergence on             energy=1.00D-06.
 No special actions if energy rises.
 SCF Done:  E(RB3LYP) =  -269.893370784     A.U. after   12 cycles
             Convg  =    0.2879D-08             -V/T =  2.0094
 PrsmSu:  requested number of processors reduced to:  10 ShMem   1 Linda.
 PrsmSu:  requested number of processors reduced to:  23 ShMem   1 Linda.
 Calling FoFJK, ICntrl=      2127 FMM=F ISym2X=0 I1Cent= 0 IOpClX= 0 NMat=1 NMatS=1 NMatT=0.
 CoulSu:  requested number of processors reduced to:  16 ShMem   1 Linda.
 -------------------------------------------------------------------
 Center     Atomic                   Forces (Hartrees/Bohr)
 Number     Number              X              Y              Z
 -------------------------------------------------------------------
      1        6          -0.000413336    0.002412940    0.005952955
      2        8          -0.000905713   -0.000184232   -0.000566517
      3        1           0.004097376    0.004412190    0.004190730
      4        1          -0.000548395   -0.003439433    0.001040465
      5        1           0.000244722   -0.000854654   -0.000367430
      6        1           0.000529559    0.000549821   -0.000176160
      7        1          -0.000280259    0.000393246   -0.000796995
      8        1           0.007088885    0.013383720   -0.001894531
      9        1          -0.000299752   -0.000260925   -0.000351404
     10        1           0.000584639   -0.002158393    0.000237430
     11        1           0.000579897   -0.000324782    0.000247037
     12        6          -0.004083270   -0.002409059   -0.007330012
     13        6          -0.000029101    0.002704392   -0.000384346
     14        8          -0.006565251   -0.014224831    0.002698777
 -------------------------------------------------------------------
 Cartesian Forces:  Max     0.014224831 RMS     0.004045135
 -----------------------------------------------------------------------------------------------
                       Internal Coordinate Forces (Hartree/Bohr or radian)
  Cent   Atom   N1       Length/X         N2         Alpha/Y        N3         Beta/Z          J
 -----------------------------------------------------------------------------------------------
      1  C 
      2  O        1  -0.001110(     1)
      3  H        1   0.004831(     2)      2  -0.013714(    14)
      4  H        1   0.002150(     3)      2  -0.004380(    15)      3   0.017760(    26)     0
      5  H        2   0.000339(     4)      1  -0.001286(    16)      4  -0.005612(    27)     0
      6  H        2   0.000330(     5)      1  -0.000799(    17)      4  -0.000850(    28)     0
      7  H        1   0.000319(     6)      2   0.001723(    18)      5  -0.000511(    29)     0
      8  H        1   0.009441(     7)      2  -0.029217(    19)      5  -0.036226(    30)     0
      9  H        1   0.000494(     8)      2   0.000252(    20)      5  -0.000575(    31)     0
     10  H        1   0.001504(     9)      2  -0.002035(    21)      5  -0.006392(    32)     0
     11  H        1  -0.000424(    10)      2  -0.001343(    22)      5  -0.001767(    33)     0
     12  C        1  -0.003545(    11)      2   0.017286(    23)      5   0.051916(    34)     0
     13  C        1  -0.001281(    12)     12   0.005814(    24)      2   0.037909(    35)     0
     14  O       12  -0.005586(    13)      1  -0.004804(    25)     13  -0.040649(    36)     0
 -----------------------------------------------------------------------------------------------
 Internal  Forces:  Max     0.051916318 RMS     0.015884836

 GradGradGradGradGradGradGradGradGradGradGradGradGradGradGradGradGradGrad
 Berny optimization.
 Search for a saddle point.
 Step number   3 out of a maximum of  100
 All quantities printed in internal units (Hartrees-Bohrs-Radians)
 Swaping is turned off.
 Update second derivatives using D2CorN and points    1    2    3
 ITU=  0  0  0
     Eigenvalues ---   -0.08518  -0.00123   0.00326   0.00939   0.01900
     Eigenvalues ---    0.02805   0.03428   0.04366   0.05335   0.06358
     Eigenvalues ---    0.07014   0.07392   0.07778   0.10212   0.12682
     Eigenvalues ---    0.20400   0.28856   0.29642   0.31424   0.40213
     Eigenvalues ---    0.48522   0.51682   0.56415   0.56482   0.68158
     Eigenvalues ---    0.97348   1.20870   1.34664   1.44283   2.86132
     Eigenvalues ---    3.43021   6.58219   7.16225  12.58833  20.38458
 Eigenvectors required to have negative eigenvalues:
                          D6        A8        D8        A7        A9
   1                    0.55321   0.49429  -0.46228  -0.32780  -0.32072
                          B7        B9        D7        A12       A5
   1                    0.07292  -0.07076  -0.06457  -0.05868  -0.05531
 RFO step:  Lambda0=1.280106993D-10 Lambda=-1.95964132D-03.
 Linear search not attempted -- option 19 set.
 Maximum step size (   0.300) exceeded in Quadratic search.
    -- Step size scaled by   0.394
 Variable       Old X    -DE/DX   Delta X   Delta X   Delta X     New X
                                 (Linear)    (Quad)   (Total)
    B1        4.13230   0.00483   0.00000  -0.00221  -0.00221   4.13009
    B2        4.13457   0.00215   0.00000  -0.00396  -0.00396   4.13061
    B3        1.83109   0.00034   0.00000   0.00038   0.00038   1.83148
    B4        1.83101   0.00033   0.00000   0.00040   0.00040   1.83141
    B5        2.05335   0.00032   0.00000   0.00223   0.00223   2.05559
    B6        4.77461   0.00944   0.00000   0.02400   0.02400   4.79861
    B7        3.95640   0.00049   0.00000   0.00755   0.00755   3.96395
    B8        4.06717   0.00150   0.00000  -0.00327  -0.00327   4.06390
    B9        3.95658  -0.00042   0.00000  -0.00037  -0.00037   3.95621
   B10        2.77824  -0.00354   0.00000   0.00720   0.00720   2.78544
   B11        2.77827  -0.00128   0.00000  -0.00250  -0.00250   2.77578
   B12        2.76729  -0.00559   0.00000  -0.01187  -0.01187   2.75542
    A1        1.37608  -0.01371   0.00000   0.00180   0.00180   1.37788
    A2        1.57957  -0.00438   0.00000  -0.00605  -0.00605   1.57353
    A3        2.20108  -0.00129   0.00000  -0.00917  -0.00917   2.19191
    A4        2.16682  -0.00080   0.00000   0.00026   0.00026   2.16707
    A5        1.45575   0.00172   0.00000   0.02396   0.02396   1.47970
    A6        2.31506  -0.02922   0.00000   0.00044   0.00044   2.31550
    A7        2.22633   0.00025   0.00000  -0.00561  -0.00561   2.22071
    A8        1.74154  -0.00203   0.00000  -0.00440  -0.00440   1.73714
    A9        1.36775  -0.00134   0.00000  -0.00582  -0.00582   1.36193
   A10        1.63516   0.01729   0.00000   0.01032   0.01032   1.64549
   A11        2.17850   0.00581   0.00000  -0.01072  -0.01072   2.16778
   A12        1.45833  -0.00480   0.00000   0.03424   0.03424   1.49257
    D1        0.82690   0.01776   0.00000   0.00553   0.00553   0.83242
    D2       -1.15098  -0.00561   0.00000   0.11085   0.11085  -1.04013
    D3        2.45651  -0.00085   0.00000   0.10636   0.10636   2.56286
    D4        2.66096  -0.00051   0.00000   0.10321   0.10321   2.76416
    D5       -2.31240  -0.03623   0.00000   0.11146   0.11146  -2.20094
    D6        0.92711  -0.00058   0.00000   0.09793   0.09793   1.02504
    D7        0.12244  -0.00639   0.00000   0.09699   0.09699   0.21943
    D8        0.91808  -0.00177   0.00000   0.09727   0.09727   1.01535
    D9       -1.60465   0.05192   0.00000   0.10818   0.10818  -1.49647
   D10       -1.88465   0.03791   0.00000   0.00028   0.00028  -1.88437
   D11        1.46079  -0.04065   0.00000  -0.00937  -0.00937   1.45142
         Item               Value     Threshold  Converged?
 Maximum Force            0.051916     0.000450     NO 
 RMS     Force            0.016109     0.000300     NO 
 Maximum Displacement     0.111462     0.001800     NO 
 RMS     Displacement     0.050709     0.001200     NO 
 Predicted change in Energy=-6.708885D-04
 GradGradGradGradGradGradGradGradGradGradGradGradGradGradGradGradGradGrad

 ---------------------------------------------------------------------------------------------------
                            Z-MATRIX (ANGSTROMS AND DEGREES)
   CD    Cent   Atom    N1       Length/X        N2       Alpha/Y        N3        Beta/Z          J
 ---------------------------------------------------------------------------------------------------
      1      1  C 
      2      2  O        1   2.348235(     1)
      3      3  H        1   2.185552(     2)      2   78.947(    14)
      4      4  H        1   2.185824(     3)      2   90.156(    15)      3   47.694(    26)      0
      5      5  H        2   0.969176(     4)      1  125.587(    16)      4  -59.595(    27)      0
      6      6  H        2   0.969143(     5)      1  124.164(    17)      4  146.841(    28)      0
      7      7  H        1   1.087771(     6)      2   84.781(    18)      5  158.375(    29)      0
      8      8  H        1   2.539316(     7)      2  132.668(    19)      5 -126.104(    30)      0
      9      9  H        1   2.097634(     8)      2  127.237(    20)      5   58.730(    31)      0
     10     10  H        1   2.150524(     9)      2   99.531(    21)      5   12.572(    32)      0
     11     11  H        1   2.093536(    10)      2   78.033(    22)      5   58.175(    33)      0
     12     12  C        1   1.473989(    11)      2   94.279(    23)      5  -85.742(    34)      0
     13     13  C        1   1.468878(    12)     12  124.205(    24)      2 -107.966(    35)      0
     14     14  O       12   1.458104(    13)      1   85.518(    25)     13   83.160(    36)      0
 ---------------------------------------------------------------------------------------------------
                         Z-Matrix orientation:                         
 ---------------------------------------------------------------------
 Center     Atomic      Atomic             Coordinates (Angstroms)
 Number     Number       Type             X           Y           Z
 ---------------------------------------------------------------------
      1          6           0        0.000000    0.000000    0.000000
      2          8           0        0.000000    0.000000    2.348235
      3          1           0        2.145008    0.000000    0.419019
      4          1           0        1.471241   -1.616552   -0.005966
      5          1           0       -0.234240   -0.752550    2.912239
      6          1           0       -0.127477    0.791703    2.892471
      7          1           0       -0.081893    1.080161    0.098951
      8          1           0        1.767362    0.602176   -1.721030
      9          1           0       -1.620533   -0.403450   -1.269318
     10          1           0       -1.055983   -1.839256   -0.356080
     11          1           0       -1.982484   -0.514020    0.434091
     12          6           0        1.367151   -0.539854   -0.109989
     13          6           0       -1.216303   -0.762121   -0.312058
     14          8           0        1.265498   -0.198116   -1.523830
 ---------------------------------------------------------------------
                    Distance matrix (angstroms):
                    1          2          3          4          5
     1  C    0.000000
     2  O    2.348235   0.000000
     3  H    2.185552   2.884949   0.000000
     4  H    2.185824   3.212484   1.802170   0.000000
     5  H    3.017008   0.969176   3.527506   3.488708   0.000000
     6  H    3.001572   0.969143   3.450934   4.093474   1.548066
     7  H    1.087771   2.496544   2.495652   3.113759   3.361046
     8  H    2.539316   4.477175   2.255004   2.819909   5.225789
     9  H    2.097634   3.984418   4.146391   3.553413   4.419174
    10  H    2.150524   3.436755   3.772265   2.561062   3.540918
    11  H    2.093536   2.803285   4.159403   3.652047   3.042116
    12  C    1.473989   2.864160   1.084598   1.086708   3.426887
    13  C    1.468878   3.022810   3.523310   2.836660   3.370554
    14  O    1.990677   4.078434   2.141834   2.087631   4.715435
                    6          7          8          9         10
     6  H    0.000000
     7  H    2.808744   0.000000
     8  H    4.991064   2.638284   0.000000
     9  H    4.580186   2.537848   3.562746   0.000000
    10  H    4.282191   3.111092   3.974286   1.792836   0.000000
    11  H    3.345086   2.503193   4.466741   1.744945   1.799729
    12  C    3.608563   2.183537   2.014908   3.207633   2.760541
    13  C    3.724100   2.202230   3.570541   1.099270   1.089890
    14  O    4.735382   2.466349   0.964999   2.904500   3.073476
                   11         12         13         14
    11  H    0.000000
    12  C    3.393633   0.000000
    13  C    1.097873   2.600860   0.000000
    14  O    3.805606   1.458104   2.818836   0.000000
 Symmetry turned off by external request.
 Stoichiometry    C3H9O2(1+)
 Framework group  C1[X(C3H9O2)]
 Deg. of freedom    36
 Full point group                 C1      NOp   1
 Rotational constants (GHZ):      6.4985317      2.9319480      2.2287002
 Standard basis: 6-31++G(d,p) (6D, 7F)
 The following finite field(s) will be applied:
 An electric field of              0.0000  0.0000 -0.0025
 Integral buffers will be    131072 words long.
 Raffenetti 2 integral format.
 Two-electron integral symmetry is turned off.
   149 basis functions,   232 primitive gaussians,   149 cartesian basis functions
    21 alpha electrons       21 beta electrons
       nuclear repulsion energy       191.3041056438 Hartrees.
 NAtoms=   14 NActive=   14 NUniq=   14 SFac= 1.00D+00 NAtFMM=   50 NAOKFM=F Big=F
 One-electron integrals computed using PRISM.
 PrsmSu:  requested number of processors reduced to:  10 ShMem   1 Linda.
 NBasis=   149 RedAO= T  NBF=   149
 NBsUse=   149 1.00D-06 NBFU=   149
 The nuclear repulsion energy is now       191.2688275990 hartrees.
 Initial guess read from the read-write file.
 B after Tr=     0.000000    0.000000    0.000000
         Rot=    1.000000    0.000000    0.000000    0.000000 Ang=   0.00 deg.
 Harris functional with IExCor=  402 diagonalized for initial guess.
 ExpMin= 3.60D-02 ExpMax= 5.48D+03 ExpMxC= 8.25D+02 IAcc=3 IRadAn=         0 AccDes= 0.00D+00
 HarFok:  IExCor=  402 AccDes= 0.00D+00 IRadAn=         0 IDoV= 1
 ScaDFX=  1.000000  1.000000  1.000000  1.000000
 FoFCou: FMM=F IPFlag=           0 FMFlag=      100000 FMFlg1=           0
         NFxFlg=           0 DoJE=T BraDBF=F KetDBF=T FulRan=T
         Omega=  0.000000  0.000000  1.000000  0.000000  0.000000 ICntrl=     500 IOpCl=  0
         NMat0=    1 NMatS0=    1 NMatT0=    0 NMatD0=    1 NMtDS0=    0 NMtDT0=    0
         I1Cent=           4 NGrid=           0.
 Symmetry not used in FoFCou.
 Requested convergence on RMS density matrix=1.00D-08 within 128 cycles.
 Requested convergence on MAX density matrix=1.00D-06.
 Requested convergence on             energy=1.00D-06.
 No special actions if energy rises.
 SCF Done:  E(RB3LYP) =  -269.893851197     A.U. after   11 cycles
             Convg  =    0.3118D-08             -V/T =  2.0096
 PrsmSu:  requested number of processors reduced to:  10 ShMem   1 Linda.
 PrsmSu:  requested number of processors reduced to:  23 ShMem   1 Linda.
 Calling FoFJK, ICntrl=      2127 FMM=F ISym2X=0 I1Cent= 0 IOpClX= 0 NMat=1 NMatS=1 NMatT=0.
 CoulSu:  requested number of processors reduced to:  16 ShMem   1 Linda.
 -------------------------------------------------------------------
 Center     Atomic                   Forces (Hartrees/Bohr)
 Number     Number              X              Y              Z
 -------------------------------------------------------------------
      1        6          -0.000791296    0.000777213    0.004515646
      2        8          -0.000461012   -0.000095963   -0.002319569
      3        1           0.001511190    0.001722138    0.001459176
      4        1          -0.000292800   -0.001527800    0.000014060
      5        1           0.000177962   -0.000093208   -0.000149804
      6        1           0.000404364   -0.000020490   -0.000007207
      7        1           0.000078427   -0.000055616   -0.000061899
      8        1           0.003345680    0.006561440   -0.000831002
      9        1           0.000089896   -0.000122860    0.000090598
     10        1           0.000134219   -0.000374842    0.000070225
     11        1           0.000593985   -0.000089248   -0.000268074
     12        6          -0.001464006   -0.000209299   -0.002007367
     13        6          -0.000309679    0.000604682    0.000339659
     14        8          -0.003016929   -0.007076147    0.001655558
 -------------------------------------------------------------------
 Cartesian Forces:  Max     0.007076147 RMS     0.001961136
 -----------------------------------------------------------------------------------------------
                       Internal Coordinate Forces (Hartree/Bohr or radian)
  Cent   Atom   N1       Length/X         N2         Alpha/Y        N3         Beta/Z          J
 -----------------------------------------------------------------------------------------------
      1  C 
      2  O        1  -0.002477(     1)
      3  H        1   0.001763(     2)      2  -0.004718(    14)
      4  H        1   0.000933(     3)      2  -0.000069(    15)      3   0.006844(    26)     0
      5  H        2  -0.000058(     4)      1  -0.000262(    16)      4  -0.001101(    27)     0
      6  H        2  -0.000074(     5)      1   0.000076(    17)      4  -0.000600(    28)     0
      7  H        1  -0.000067(     6)      2   0.000115(    18)      5   0.000151(    29)     0
      8  H        1   0.004448(     7)      2  -0.014250(    19)      5  -0.018107(    30)     0
      9  H        1  -0.000101(     8)      2  -0.000148(    20)      5  -0.000445(    31)     0
     10  H        1   0.000243(     9)      2  -0.000455(    21)      5  -0.001215(    32)     0
     11  H        1  -0.000596(    10)      2   0.000584(    22)      5  -0.000911(    33)     0
     12  C        1  -0.001462(    11)      2   0.003377(    23)      5   0.021922(    34)     0
     13  C        1  -0.000129(    12)     12   0.002037(    24)      2   0.020198(    35)     0
     14  O       12  -0.003053(    13)      1  -0.001572(    25)     13  -0.019859(    36)     0
 -----------------------------------------------------------------------------------------------
 Internal  Forces:  Max     0.021921841 RMS     0.007355145

 GradGradGradGradGradGradGradGradGradGradGradGradGradGradGradGradGradGrad
 Berny optimization.
 Search for a saddle point.
 Step number   4 out of a maximum of  100
 All quantities printed in internal units (Hartrees-Bohrs-Radians)
 Swaping is turned off.
 Update second derivatives using D2CorN and points    1    2    3    4
 ITU=  0  0  0  0
     Eigenvalues ---   -0.08519   0.00150   0.00325   0.00965   0.01899
     Eigenvalues ---    0.02691   0.03422   0.04344   0.05338   0.06356
     Eigenvalues ---    0.07010   0.07394   0.07768   0.10240   0.12692
     Eigenvalues ---    0.20399   0.28857   0.29645   0.31423   0.40214
     Eigenvalues ---    0.48524   0.51687   0.56415   0.56485   0.68160
     Eigenvalues ---    0.97353   1.20869   1.34689   1.44278   2.86181
     Eigenvalues ---    3.43037   6.58226   7.16228  12.58854  20.38577
 Eigenvectors required to have negative eigenvalues:
                          D6        A8        D8        A7        A9
   1                    0.55132   0.49425  -0.46409  -0.32780  -0.32074
                          B7        B9        D7        A12       A5
   1                    0.07278  -0.07093  -0.06643  -0.05906  -0.05566
 RFO step:  Lambda0=5.690544131D-07 Lambda=-3.07888092D-04.
 Linear search not attempted -- option 19 set.
 Variable       Old X    -DE/DX   Delta X   Delta X   Delta X     New X
                                 (Linear)    (Quad)   (Total)
    B1        4.13009   0.00176   0.00000   0.00360   0.00360   4.13369
    B2        4.13061   0.00093   0.00000  -0.00251  -0.00251   4.12810
    B3        1.83148  -0.00006   0.00000  -0.00038  -0.00038   1.83109
    B4        1.83141  -0.00007   0.00000  -0.00040  -0.00040   1.83101
    B5        2.05559  -0.00007   0.00000   0.00018   0.00018   2.05577
    B6        4.79861   0.00445   0.00000  -0.05586  -0.05586   4.74275
[...]
      5  H        2   0.000000(     4)      1   0.000000(    16)      4  -0.000019(    27)     0
      6  H        2  -0.000001(     5)      1  -0.000001(    17)      4   0.000003(    28)     0
      7  H        1  -0.000001(     6)      2  -0.000002(    18)      5  -0.000003(    29)     0
      8  H        1   0.000019(     7)      2  -0.000051(    19)      5  -0.000080(    30)     0
      9  H        1  -0.000004(     8)      2   0.000012(    20)      5  -0.000021(    31)     0
     10  H        1   0.000007(     9)      2  -0.000018(    21)      5  -0.000030(    32)     0
     11  H        1  -0.000003(    10)      2   0.000018(    22)      5   0.000011(    33)     0
     12  C        1  -0.000008(    11)      2   0.000048(    23)      5   0.000134(    34)     0
     13  C        1  -0.000002(    12)     12   0.000038(    24)      2   0.000065(    35)     0
     14  O       12  -0.000012(    13)      1  -0.000009(    25)     13  -0.000074(    36)     0
 -----------------------------------------------------------------------------------------------
 Internal  Forces:  Max     0.001838979 RMS     0.000308624

 GradGradGradGradGradGradGradGradGradGradGradGradGradGradGradGradGradGrad
 Berny optimization.
 Search for a saddle point.
 Step number   1 out of a maximum of    2
 All quantities printed in internal units (Hartrees-Bohrs-Radians)
 Swaping is turned off.
 Second derivative matrix not updated -- analytic derivatives used.
 ITU=  0
     Eigenvalues ---    0.00014   0.00135   0.00362   0.01118   0.01458
     Eigenvalues ---    0.01940   0.02198   0.03906   0.05670   0.06660
     Eigenvalues ---    0.07051   0.07428   0.07826   0.11219   0.12723
     Eigenvalues ---    0.19768   0.28731   0.29801   0.33264   0.36413
     Eigenvalues ---    0.50158   0.52917   0.53059   0.53276   0.77510
     Eigenvalues ---    1.00221   1.23125   1.32384   1.46454   2.72807
     Eigenvalues ---    3.03609   6.02344   6.48252  11.53135  19.44321
 Eigenvectors required to have negative eigenvalues:
                          D6        D4        D9        D2        D7
   1                    0.48257   0.36818   0.36647   0.36489   0.35980
                          D5        D8        D3        A8        B6
   1                    0.32441   0.27995   0.11496   0.09424  -0.08813
 Eigenvalue     1 is   1.38D-04 should be less than     0.000000 Eigenvector:
                          D6        D4        D9        D2        D7
   1                    0.48257   0.36818   0.36647   0.36489   0.35980
                          D5        D8        D3        A8        B6
   1                    0.32441   0.27995   0.11496   0.09424  -0.08813
 Angle between quadratic step and forces=  91.12 degrees.
 Linear search not attempted -- option 19 set.
 Variable       Old X    -DE/DX   Delta X   Delta X   Delta X     New X
                                 (Linear)    (Quad)   (Total)
    B1        4.13371   0.00001   0.00000  -0.00007  -0.00007   4.13364
    B2        4.12725   0.00001   0.00000   0.00017   0.00017   4.12743
    B3        1.83107   0.00000   0.00000  -0.00002  -0.00002   1.83105
    B4        1.83098   0.00000   0.00000  -0.00001  -0.00001   1.83097
    B5        2.05586   0.00000   0.00000  -0.00002  -0.00002   2.05584
    B6        4.76179   0.00002   0.00000  -0.00146  -0.00146   4.76033
    B7        3.96900   0.00000   0.00000   0.00051   0.00051   3.96951
    B8        4.06189   0.00001   0.00000  -0.00003  -0.00003   4.06186
    B9        3.94262   0.00000   0.00000  -0.00085  -0.00085   3.94177
   B10        2.78454  -0.00001   0.00000  -0.00007  -0.00007   2.78447
   B11        2.77305   0.00000   0.00000  -0.00004  -0.00004   2.77301
   B12        2.75318  -0.00001   0.00000   0.00006   0.00006   2.75325
    A1        1.36097  -0.00003   0.00000   0.00043   0.00043   1.36140
    A2        1.55797  -0.00001   0.00000   0.00137   0.00137   1.55933
    A3        2.19920   0.00000   0.00000   0.00152   0.00152   2.20072
    A4        2.19781   0.00000   0.00000   0.00060   0.00060   2.19841
    A5        1.49391   0.00000   0.00000  -0.00160  -0.00160   1.49231
    A6        2.30466  -0.00005   0.00000   0.00015   0.00015   2.30481
    A7        2.21084   0.00001   0.00000  -0.00138  -0.00138   2.20946
    A8        1.72831  -0.00002   0.00000   0.00216   0.00216   1.73046
    A9        1.35142   0.00002   0.00000  -0.00148  -0.00148   1.34995
   A10        1.62880   0.00005   0.00000   0.00081   0.00081   1.62961
   A11        2.16855   0.00004   0.00000   0.00020   0.00020   2.16875
   A12        1.49671  -0.00001   0.00000  -0.00056  -0.00056   1.49616
    D1        0.83696   0.00005   0.00000  -0.00021  -0.00021   0.83674
    D2       -1.10760  -0.00002   0.00000   0.02592   0.02592  -1.08168
    D3        2.34763   0.00000   0.00000   0.01575   0.01575   2.36338
    D4        2.69059   0.00000   0.00000   0.02620   0.02620   2.71678
    D5       -2.27835  -0.00008   0.00000   0.02423   0.02423  -2.25412
    D6        0.94714  -0.00002   0.00000   0.02871   0.02871   0.97584
    D7        0.14365  -0.00003   0.00000   0.02608   0.02608   0.16973
    D8        0.94096   0.00001   0.00000   0.02442   0.02442   0.96538
    D9       -1.56633   0.00013   0.00000   0.02588   0.02588  -1.54045
   D10       -1.86290   0.00006   0.00000  -0.00097  -0.00097  -1.86387
   D11        1.47088  -0.00007   0.00000   0.00008   0.00008   1.47096
         Item               Value     Threshold  Converged?
 Maximum Force            0.000134     0.000450     YES
 RMS     Force            0.000037     0.000300     YES
 Maximum Displacement     0.028707     0.001800     NO 
 RMS     Displacement     0.011934     0.001200     NO 
 Predicted change in Energy= 8.088648D-07
 GradGradGradGradGradGradGradGradGradGradGradGradGradGradGradGradGradGrad

 1\1\GINC-C25N08\Freq\RB3LYP\6-31++G(d,p)\C3H9O2(1+)\ROOT\06-Mar-2018\1
 \\#N Geom=AllCheck Guess=TCheck SCRF=Check GenChk RB3LYP/6-31++G(d,p) 
 Freq\\H3O-BACK-MIDM\\1,1\C\O,1,2.34823508\H,1,B1,2,A1\H,1,B2,2,A2,3,D1
 ,0\H,2,B3,1,A3,4,D2,0\H,2,B4,1,A4,4,D3,0\H,1,B5,2,A5,5,D4,0\H,1,B6,2,A
 6,5,D5,0\H,1,B7,2,A7,5,D6,0\H,1,B8,2,A8,5,D7,0\H,1,B9,2,A9,5,D8,0\C,1,
 B10,2,A10,5,D9,0\C,1,B11,12,A11,2,D10,0\O,12,B12,1,A12,13,D11,0\\B1=2.
 18746302\B2=2.1840482\B3=0.96895954\B4=0.96891275\B5=1.08791474\B6=2.5
 1982989\B7=2.10030493\B8=2.14945937\B9=2.08634483\B10=1.47351377\B11=1
 .46743437\B12=1.45692202\A1=77.97785308\A2=89.26492565\A3=126.00469409
 \A4=125.92508316\A5=85.59473822\A6=132.04732859\A7=126.67167129\A8=99.
 02480973\A9=77.43092348\A10=93.32341008\A11=124.24864317\A12=85.755431
 23\D1=47.95407408\D2=-63.46071992\D3=134.50914132\D4=154.15922015\D5=-
 130.5399106\D6=54.26690041\D7=8.23047897\D8=53.913068\D9=-89.74388158\
 D10=-106.73632584\D11=84.27519655\\Version=EM64L-G09RevB.01\HF=-269.89
 40393\RMSD=2.852e-09\RMSF=7.304e-04\ZeroPoint=0.1200427\Thermal=0.1281
 898\Dipole=-0.0771984,0.6388455,0.9316272\DipoleDeriv=0.9996038,0.1318
 372,-0.2359702,0.2583157,0.2928771,0.028817,-0.4073591,0.0873971,1.330
 6869,-0.6080632,0.0249185,0.0136283,0.0134808,-0.4965303,-0.0265146,0.
 0090963,-0.0350614,-0.8338989,0.0604342,-0.0223662,-0.0259965,-0.03972
 54,0.0607232,-0.0178928,-0.0150091,0.0122377,0.0539384,0.0913941,-0.02
 51135,-0.0068209,0.0027019,0.0249871,0.0215207,-0.0040627,-0.0050405,0
 .0708939,0.3511103,-0.0197613,-0.0106668,-0.0035544,0.3112042,-0.09476
 03,0.0223244,-0.020606,0.2303441,0.3573297,-0.0050079,0.0212139,-0.011
 625,0.3339566,0.1006143,0.0221318,0.0003909,0.2199714,0.0439645,-0.024
 6782,0.0235088,-0.0255441,0.050171,0.0002761,0.006828,-0.0014545,0.022
 8471,0.3277754,-0.0125619,-0.0474528,0.081908,0.2771619,-0.1506011,-0.
 0556894,-0.0548448,0.3119562,0.1682208,0.0081597,0.0236246,-0.0920061,
 0.0687941,0.0328601,-0.0053999,0.0357942,0.0880547,0.0604258,0.0555728
 ,-0.0040726,0.0050074,0.0092459,-0.0008942,-0.0039286,0.0059149,0.1053
 908,0.1834525,0.0197635,0.0299741,-0.0726282,0.0773803,-0.0546168,0.03
 2664,-0.0315747,0.0923363,0.2856669,-0.0123613,-0.1298651,-0.1217253,0
 .269311,-0.003086,0.1847933,-0.1212546,0.3624027,-0.5576585,-0.1353532
 ,-0.0988955,-0.0145817,0.0294788,-0.016838,-0.1255568,-0.0271571,-0.12
 02306,-0.7636563,0.0169517,0.4477908,0.0199766,-0.3087609,0.1811156,0.
 3391677,0.1552588,-0.9346931\Polar=50.5543782,1.8169508,39.9323814,-4.
 7125807,0.5581069,53.4203895\PG=C01 [X(C3H9O2)]\NImag=1\\0.55102858,-0
 .02020097,0.65980741,0.06107066,0.05384619,0.13695548,-0.00471900,-0.0
 0279021,-0.00113632,0.05451897,-0.00003606,-0.01352404,0.00309589,0.14
 246748,0.66550393,0.00193842,0.00214632,0.01135963,-0.08496154,0.01793
 363,0.44088373,-0.02034818,-0.01863345,-0.01172649,0.00094495,0.000551
 77,-0.00041842,0.20451590,0.01071606,0.00724642,0.00566445,0.00040510,
 -0.00029842,0.00007915,0.10961635,0.13247318,0.00773687,0.00873827,0.0
 0390407,-0.00025257,-0.00014919,-0.00018332,0.10611703,0.07242202,0.12
 598890,-0.00272294,0.03381617,-0.00013929,-0.00002403,-0.00048144,-0.0
 0020192,0.00507673,-0.02150622,0.00268962,0.05586277,0.00042180,-0.008
 07656,-0.00010328,-0.00004342,0.00060458,-0.00017140,0.00246693,-0.010
 11474,0.00135280,-0.02507431,0.35062009,0.00031756,-0.01037851,-0.0000
 1904,-0.00017412,0.00077776,0.00030562,0.00207520,-0.01429688,0.005160
 88,0.00342007,-0.02928007,0.05848449,0.00027200,0.00226151,0.00287538,
 -0.04603820,-0.11968837,0.08282310,0.00007309,-0.00017691,0.00016825,0
 .00005176,0.00019050,0.00025253,0.04698564,0.00068409,0.00156045,0.007
 46423,-0.10727617,-0.30768348,0.17517826,-0.00016465,-0.00000278,0.000
 00601,0.00015631,-0.00011116,-0.00022929,0.11837828,0.33109489,0.00198
 612,0.00303891,0.00501174,0.09478193,0.22918781,-0.21364870,-0.0000646
 7,0.00001802,0.00004272,0.00027429,-0.00024479,-0.00017358,-0.08772484
 ,-0.20539461,0.19963053,-0.00120511,0.00020164,-0.00013688,-0.00551556
 ,-0.02003626,0.00182075,-0.00021797,0.00011942,0.00040461,-0.00003977,
 -0.00009266,-0.00013012,-0.00001884,-0.01198519,-0.00823825,0.00685415
 ,0.00014497,0.00159704,-0.00838396,-0.03311597,-0.34867690,-0.19359785
 ,-0.00001723,0.00015698,-0.00002641,0.00002164,-0.00006375,-0.00011924
 ,0.00046050,-0.02494624,-0.02562929,0.03214128,0.37198639,0.00098786,-
 0.00265467,0.00591578,-0.01020387,-0.24771596,-0.21327538,0.00030421,-
 0.00012993,-0.00011158,-0.00004639,0.00000848,0.00015324,0.00332944,0.
 02677085,0.01350325,0.00666157,0.22290279,0.19927114,-0.05877309,0.018
 77171,0.00367406,-0.00049995,-0.00094122,0.00083738,0.00126678,-0.0001
 8777,-0.00050585,-0.00440809,0.00045997,0.00202607,-0.00005438,0.00017
 334,0.00030905,0.00048097,-0.00004006,-0.00005174,0.06087880,0.0227231
 1,-0.34981051,-0.02606041,0.00012741,0.00164086,-0.00088584,-0.0000011
 6,0.00090497,-0.00030733,0.00112668,0.00096639,-0.00018736,-0.00020780
 ,-0.00018331,-0.00046194,0.00006728,0.00016036,0.00030498,-0.02221617,
 0.35871375,-0.00531525,-0.02003040,-0.04339043,0.00069622,0.00342337,-
 0.00500856,0.00058046,-0.00011724,0.00010864,-0.00112608,0.00057411,0.
 00051408,-0.00070109,-0.00068794,-0.00101582,-0.00014477,0.00074910,-0
 .00111311,-0.00062219,0.02752802,0.03515127,-0.00081158,-0.00758127,-0
 .00110506,0.00009024,0.00038723,-0.00029228,0.00178008,0.00057843,-0.0
 0136822,0.00007945,0.00141410,-0.00380027,-0.00006655,-0.00005454,-0.0
 0001074,0.00008272,-0.00001267,0.00014068,-0.00025861,0.00096123,-0.00
 008689,0.13138378,-0.00613640,0.00415995,0.00533357,0.00018799,-0.0004
 0688,-0.00144988,0.00027554,0.00266224,-0.00159078,-0.00025920,0.00060
 799,0.00261562,-0.00003874,-0.00026278,-0.00012574,0.00009133,0.000419
 60,-0.00026281,0.00047656,0.00012664,-0.00006949,0.20755946,0.37053696
 ,-0.00116785,0.00519195,-0.00449094,-0.00023650,-0.00073294,0.00010191
 ,-0.00141458,0.00013934,0.00197211,0.00127917,-0.00041316,-0.00486648,
 0.00001824,0.00011215,0.00004473,0.00017027,0.00007377,-0.00022583,0.0
 0091735,-0.00065144,0.00047075,-0.03942356,-0.08038200,0.06567255,-0.0
 2068931,0.00899643,-0.02504922,0.00023137,0.00005637,0.00124667,-0.000
 81743,0.00009053,0.00032065,0.00025364,-0.00009873,-0.00000341,-0.0000
 6164,0.00003854,0.00001527,0.00006227,-0.00005484,0.00010792,0.0005931
 4,-0.00036625,0.00141604,-0.00021983,0.00023815,0.00024964,0.08453891,
 -0.00121859,0.00799070,-0.01616571,-0.00012006,-0.00043908,-0.00146047
 ,-0.00011950,0.00022726,-0.00018854,-0.00029930,0.00009289,-0.00000652
 ,-0.00030793,-0.00037991,-0.00031888,-0.00021504,0.00040414,-0.0003597
 0,0.00038055,0.00045186,0.00096936,-0.00036331,0.00060366,-0.00005406,
 -0.03228675,0.07360886,-0.00111503,0.00074750,-0.00598453,-0.00032574,
 -0.00058054,-0.00013818,-0.00003004,0.00005901,0.00012792,0.00002615,-
 0.00003261,0.00001809,0.00006586,-0.00000763,0.00016019,-0.00022850,0.
 00018586,-0.00007587,-0.00053497,-0.00035377,0.00140285,0.00032482,-0.
 00025104,0.00002474,0.09862722,-0.07993502,0.26131161,0.00441937,-0.03
 409663,-0.00152120,0.00019225,0.00024153,0.00016343,0.00027431,0.00021
 927,-0.00024482,-0.00039961,0.00065392,-0.00015315,0.00005025,0.000018
 17,-0.00013972,-0.00008103,-0.00002340,0.00007368,-0.00449502,-0.00210
 684,-0.00171115,0.00008366,0.00006969,-0.00001637,-0.00240196,0.011412
 16,0.00250132,0.06156635,0.00131239,-0.01627327,-0.00088974,0.00004722
 ,0.00038235,-0.00000772,0.00022402,0.00028944,-0.00023462,-0.00090299,
 0.00035850,0.00023082,-0.00007613,-0.00015052,-0.00026366,0.00001002,-
 0.00003800,0.00005269,-0.00181851,0.00062944,-0.00028860,0.00008643,0.
 00003783,0.00004328,0.00109685,-0.00656053,-0.00122971,-0.04557867,0.3
 4411100,0.00166287,-0.00839295,-0.00144586,-0.00010773,0.00042036,-0.0
 0004723,0.00004593,0.00001653,0.00000415,-0.00016937,0.00013468,0.0002
 0436,-0.00009271,-0.00036035,-0.00034711,0.00006998,-0.00000811,0.0000
 2332,-0.00175153,-0.00075431,0.00320718,-0.00003691,-0.00012769,-0.000
 20968,-0.00322360,0.02661827,0.00303320,0.00072067,0.01009162,0.045526
 39,-0.02531191,0.00499709,0.02057170,0.00123631,0.00078158,0.00137625,
 -0.00076359,0.00017142,0.00056277,0.00027214,-0.00016322,-0.00010773,-
 0.00025094,0.00009143,-0.00066537,0.00017505,-0.00025477,0.00005277,0.
 00107602,-0.00014578,-0.00146337,-0.00001314,-0.00010804,-0.00019801,0
 .00878384,-0.00167445,-0.00861591,-0.00214771,0.00028066,0.00120718,0.
 18411060,-0.00331082,0.00494114,0.01482490,0.00047602,-0.00053911,-0.0
 0104458,-0.00028861,0.00037421,0.00005730,-0.00012172,0.00018934,-0.00
 022309,-0.00000199,0.00011952,-0.00004043,-0.00044986,0.00029381,-0.00
 038479,0.00061443,0.00064195,-0.00074885,-0.00032910,0.00057514,0.0000
 0849,-0.00572212,0.00131975,0.00647001,0.02099038,-0.00305566,-0.02077
 326,-0.04334583,0.05987626,-0.00578823,0.00226920,0.00467379,0.0006818
 2,-0.00059301,-0.00145398,-0.00051579,0.00005846,0.00034308,0.00003661
 ,-0.00003429,-0.00002713,-0.00097166,0.00007439,-0.00070794,-0.0005903
 6,0.00014361,-0.00044517,0.00034846,-0.00000959,0.00082060,0.00008700,
 -0.00013862,-0.00007373,0.02000050,-0.00505259,-0.02020705,-0.00245252
 ,0.00066342,0.00042665,-0.14063398,0.04658647,0.17981887,-0.26156342,0
 .07343687,-0.00853733,-0.00051487,-0.00173442,-0.00322168,-0.19840026,
 -0.10882492,-0.09291369,-0.05821627,0.02137982,-0.00333791,-0.00010615
 ,-0.00085801,-0.00047808,0.00099475,0.00105894,-0.00113910,-0.00296478
 ,-0.00110567,0.00481260,0.00191122,-0.00054065,0.02014665,-0.00068934,
 0.00133267,-0.00043754,0.00245424,0.00166484,-0.00040148,-0.00404509,-
 0.00080033,-0.00242193,0.59086971,0.08012432,-0.12599137,-0.01994465,-
 0.00129164,-0.00075230,0.00380268,-0.10284685,-0.13678284,-0.06747589,
 0.01845802,-0.33575981,0.01248899,-0.00056006,0.00135332,0.00125505,0.
 00012808,-0.00070973,0.00079507,0.03084018,-0.00820438,0.00515954,0.01
 128616,-0.00724563,0.03245109,-0.00324737,-0.00222871,-0.00003624,-0.0
 0149092,0.00127284,0.00032020,-0.00131612,-0.00099491,0.00008478,0.020
 07281,0.67992324,-0.03802206,-0.01493242,0.00750874,0.00114777,-0.0005
 5347,-0.00872980,-0.09954091,-0.07414884,-0.11071922,-0.00550171,0.023
 37792,-0.04627207,0.00058422,-0.00117125,-0.00179548,0.00070684,0.0008
 4353,-0.00175999,0.00081102,0.00148501,0.00222530,-0.00147444,-0.01026
 923,-0.01271187,-0.00174944,0.00120648,-0.00121244,0.00109946,0.000071
 11,-0.00061195,-0.00238144,0.00060513,-0.00225562,0.11712348,0.0235633
 4,0.36558398,-0.17483945,-0.06820675,-0.02783518,0.00011405,-0.0018096
 1,-0.00680626,-0.00171995,0.00102463,0.00178591,0.00169783,-0.00094364
 ,-0.00100618,-0.00094685,-0.00078287,-0.00104252,-0.00085176,0.0012868
 1,-0.00136924,0.00659084,0.00382679,-0.00026197,-0.00161339,0.00211371
 ,0.00000384,-0.07101394,0.02569247,-0.09262118,-0.05895936,0.04393190,
 0.00125521,-0.16540175,0.03554902,0.13131907,-0.01733354,-0.01423598,-
 0.00227438,0.49851304,-0.08325874,-0.15495677,-0.02576802,0.00042162,0
 .00139856,0.00033205,0.00342798,-0.00111051,-0.00113458,0.00081153,0.0
 0124500,0.00074387,-0.00032969,0.00022007,-0.00020974,0.00012784,-0.00
 037363,0.00049963,-0.02643359,-0.01013082,-0.00681886,0.00051620,-0.00
 063250,-0.00024256,0.03192958,-0.07509274,0.07447699,0.04934088,-0.321
 15314,-0.00750777,0.04128281,-0.06337626,-0.04421553,0.00879372,0.0126
 0465,0.00412961,-0.02622690,0.61055338,-0.03845132,-0.01575989,-0.0834
 9720,-0.00228718,-0.00396834,-0.00440026,0.00035373,-0.00017370,-0.000
 85153,0.00046475,0.00007145,-0.00008615,-0.00028348,-0.00005744,0.0001
 8587,-0.00079420,0.00110192,-0.00092221,-0.00198831,-0.00035744,0.0047
 4430,0.00059582,0.00052330,0.00108092,-0.09412462,0.07178548,-0.236881
 93,0.00143111,-0.00850603,-0.04841909,0.13314852,-0.04523869,-0.159608
 27,0.00900964,-0.00865940,0.01008482,-0.00623427,0.00659084,0.50452951
 ,0.01526403,0.00902786,-0.01100483,-0.00001652,0.00024142,0.00569610,0
 .00833552,0.00775460,-0.02450054,0.00251640,-0.00057106,0.00062145,0.0
 0011079,0.00158127,0.00099755,-0.00071987,-0.00159521,0.00115221,0.000
 56738,-0.00268282,0.00392742,-0.13242806,-0.20392940,0.01967173,0.0014
 3026,-0.00221291,0.00236354,-0.00055576,-0.00027804,0.00082147,0.00228
 018,-0.00325946,0.00090101,-0.05239621,-0.03592063,0.02947159,-0.01423
 577,-0.00040323,-0.00084019,0.16984764,-0.00196516,-0.01867060,0.00708
 654,0.00050464,0.00278993,-0.00085433,0.00550886,0.00397459,-0.0114690
 6,-0.00574515,-0.00055875,0.03786389,0.00009682,-0.00062804,-0.0008107
 0,-0.00010789,-0.00021007,0.00017336,-0.00007942,0.00409280,-0.0096421
 3,-0.21444833,-0.37118223,0.04445611,-0.00067039,0.00000184,0.00048719
 ,0.00035046,0.00014971,0.00032279,-0.00059677,-0.00036519,0.00016329,-
 0.01387567,-0.07648438,0.04579310,-0.00121959,0.00080472,0.00264793,0.
 23224760,0.45628568,0.01415937,-0.00382950,-0.03650122,0.00237785,-0.0
 0054536,-0.00576549,0.00423435,0.01040961,-0.02578680,-0.00100590,0.00
 476015,-0.01339631,-0.00034326,-0.00169739,-0.00089040,0.00042908,0.00
 176428,-0.00093759,-0.00346881,0.00071142,0.00188296,0.04645007,0.0861
 9479,-0.04678917,0.00216638,0.00296192,-0.00157861,0.00024926,0.000267
 14,-0.00134434,-0.00285337,-0.00009860,-0.00130411,-0.03820364,0.01619
 545,-0.19933441,0.00508714,-0.00087592,0.01404120,-0.02927852,-0.11621
 798,0.31770429\\-0.00024412,-0.00008496,-0.00434547,0.00023871,0.00012
 507,0.00183806,-0.00000976,-0.00005066,-0.00000946,0.00000183,0.000009
 10,-0.00000276,0.00000529,-0.00000255,0.00000018,0.00000192,0.,0.00000
 075,0.00000136,0.00000102,-0.00000090,-0.00001273,-0.00002843,0.000004
 81,-0.00000612,0.00000538,0.00000027,-0.00000286,0.00001007,-0.0000032
 6,-0.00000095,-0.00000310,0.00000500,0.00000960,0.00000657,0.00001888,
 0.00000539,-0.00001344,0.00000041,0.00001243,0.00002594,-0.00000649\\\
 @


 A MAN THINKING OR WORKING IS ALWAYS ALONE, 
 LET HIM BE WHERE HE WILL.

                                    -- THOREAU
 Job cpu time:  0 days  0 hours  8 minutes 56.9 seconds.
 File lengths (MBytes):  RWF=   1248 Int=      0 D2E=      0 Chk=     32 Scr=     32
 Normal termination of Gaussian 09 at Tue Mar  6 12:55:34 2018.
