 Entering Gaussian System, Link 0=g09
 Input=H3O-term-field-2.gjf
 Output=H3O-term-field-2.log
 Initial command:
 /share/home/zxchen/g09/l1.exe /scratch/zxchen/Gau-2687.inp -scrdir=/scratch/zxchen/
 Entering Link 1 = /share/home/zxchen/g09/l1.exe PID=      2688.
  
 Copyright (c) 1988,1990,1992,1993,1995,1998,2003,2009,2010,
            Gaussian, Inc.  All Rights Reserved.
  
 This is part of the Gaussian(R) 09 program.  It is based on
 the Gaussian(R) 03 system (copyright 2003, Gaussian, Inc.),
 the Gaussian(R) 98 system (copyright 1998, Gaussian, Inc.),
 the Gaussian(R) 94 system (copyright 1995, Gaussian, Inc.),
 the Gaussian 92(TM) system (copyright 1992, Gaussian, Inc.),
 the Gaussian 90(TM) system (copyright 1990, Gaussian, Inc.),
 the Gaussian 88(TM) system (copyright 1988, Gaussian, Inc.),
 the Gaussian 86(TM) system (copyright 1986, Carnegie Mellon
 University), and the Gaussian 82(TM) system (copyright 1983,
 Carnegie Mellon University). Gaussian is a federally registered
 trademark of Gaussian, Inc.
  
 This software contains proprietary and confidential information,
 including trade secrets, belonging to Gaussian, Inc.
  
 This software is provided under written license and may be
 used, copied, transmitted, or stored only in accord with that
 written license.
  
 The following legend is applicable only to US Government
 contracts under FAR:
  
                    RESTRICTED RIGHTS LEGEND
  
 Use, reproduction and disclosure by the US Government is
 subject to restrictions as set forth in subparagraphs (a)
 and (c) of the Commercial Computer Software - Restricted
 Rights clause in FAR 52.227-19.
  
 Gaussian, Inc.
 340 Quinnipiac St., Bldg. 40, Wallingford CT 06492
  
  
 ---------------------------------------------------------------
 Warning -- This program may not be used in any manner that
 competes with the business of Gaussian, Inc. or will provide
 assistance to any competitor of Gaussian, Inc.  The licensee
 of this program is prohibited from giving any competitor of
 Gaussian, Inc. access to this program.  By using this program,
 the user acknowledges that Gaussian, Inc. is engaged in the
 business of creating and licensing software in the field of
 computational chemistry and represents and warrants to the
 licensee that it is not a competitor of Gaussian, Inc. and that
 it will not use this program in any manner prohibited above.
 ---------------------------------------------------------------
  

 Cite this work as:
 Gaussian 09, Revision B.01,
 M. J. Frisch, G. W. Trucks, H. B. Schlegel, G. E. Scuseria, 
 M. A. Robb, J. R. Cheeseman, G. Scalmani, V. Barone, B. Mennucci, 
 G. A. Petersson, H. Nakatsuji, M. Caricato, X. Li, H. P. Hratchian, 
 A. F. Izmaylov, J. Bloino, G. Zheng, J. L. Sonnenberg, M. Hada, 
 M. Ehara, K. Toyota, R. Fukuda, J. Hasegawa, M. Ishida, T. Nakajima, 
 Y. Honda, O. Kitao, H. Nakai, T. Vreven, J. A. Montgomery, Jr., 
 J. E. Peralta, F. Ogliaro, M. Bearpark, J. J. Heyd, E. Brothers, 
 K. N. Kudin, V. N. Staroverov, T. Keith, R. Kobayashi, J. Normand, 
 K. Raghavachari, A. Rendell, J. C. Burant, S. S. Iyengar, J. Tomasi, 
 M. Cossi, N. Rega, J. M. Millam, M. Klene, J. E. Knox, J. B. Cross, 
 V. Bakken, C. Adamo, J. Jaramillo, R. Gomperts, R. E. Stratmann, 
 O. Yazyev, A. J. Austin, R. Cammi, C. Pomelli, J. W. Ochterski, 
 R. L. Martin, K. Morokuma, V. G. Zakrzewski, G. A. Voth, 
 P. Salvador, J. J. Dannenberg, S. Dapprich, A. D. Daniels, 
 O. Farkas, J. B. Foresman, J. V. Ortiz, J. Cioslowski, 
 and D. J. Fox, Gaussian, Inc., Wallingford CT, 2010.
 
 ******************************************
 Gaussian 09:  EM64L-G09RevB.01 12-Aug-2010
                26-Apr-2018 
 ******************************************
 %chk=H3O-term-field-2.chk
 %nprocshared=24
 Will use up to   24 processors via shared memory.
 ----------------------------------------------------------------------
 # field=z-25 opt=(ts,noeigen,calcfc,z-matrix,tight) freq b3lyp/6-31++g
 (d,p)
 ----------------------------------------------------------------------
 1/5=1,7=10,10=4,11=1,14=-1,18=40,26=3,38=1/1,3;
 2/12=2,17=6,18=5,29=3,40=1/2;
 3/5=1,6=6,7=1111,11=2,14=3,15=-25,16=1,25=1,30=1,71=2,74=-5/1,2,3;
 4//1;
 5/5=2,38=5/2;
 8/6=4,10=90,11=11/1;
 11/6=1,8=1,9=11,15=111,16=1/1,2,10;
 10/6=1,7=6,13=1/2;
 6/7=2,8=2,9=2,10=2,28=1/1;
 7/10=1,18=20,25=1/1,2,3,16;
 1/5=1,7=10,10=4,11=1,14=-1,18=40/3(2);
 2/29=3/2;
 99//99;
 2/29=3/2;
 3/5=1,6=6,7=1111,11=2,14=3,15=-25,16=1,25=1,30=1,71=1,74=-5/1,2,3;
 4/5=5,16=3/1;
 5/5=2,38=5/2;
 7//1,2,3,16;
 1/5=1,7=10,11=1,14=-1,18=40/3(-5);
 2/29=3/2;
 6/7=2,8=2,9=2,10=2,19=2,28=1/1;
 99/9=1/99;
 -------------
 H3O-BACK-TERM
 -------------
 Symbolic Z-matrix:
 Charge =  1 Multiplicity = 1
 C
 O                    1    B1
 H                    1    B2       2    A1
 H                    1    B3       2    A2       3    D1       0
 H                    1    B4       2    A3       3    D2       0
 H                    1    B5       2    A4       5    D3       0
 H                    1    B6       2    A5       5    D4       0
 H                    2    B7       1    A6       7    D5       0
 H                    2    B8       1    A7       7    D6       0
 H                    1    B9       2    A8       8    D7       0
 C                    1    B10      2    A9       8    D8       0
 C                    1    B11      2    A10      11   D9       0
 O                    12   B12      1    A11      2    D10      0
 H                    11   B13      1    A12      12   D11      0
       Variables:
  B1                    2.09416                  
  B2                    3.01622                  
  B3                    3.46386                  
  B4                    2.16931                  
  B5                    2.4048                   
  B6                    1.08285                  
  B7                    0.96925                  
  B8                    0.97008                  
  B9                    1.08357                  
  B10                   2.5819                   
  B11                   1.47208                  
  B12                   1.47978                  
  B13                   1.09309                  
  A1                   76.1172                   
  A2                  106.29936                  
  A3                   97.40238                  
  A4                  151.88187                  
  A5                   86.70309                  
  A6                  124.8813                   
  A7                  121.42089                  
  A8                   91.98967                  
  A9                   96.72788                  
  A10                 107.9048                   
  A11                  79.52957                  
  A12                  87.99744                  
  D1                    5.71199                  
  D2                   52.19261                  
  D3                   28.5325                   
  D4                   94.81947                  
  D5                  117.94826                  
  D6                  -93.32079                  
  D7                 -123.25013                  
  D8                  -31.38614                  
  D9                   28.78346                  
  D10                 179.26345                  
  D11                 143.15934                  
 

 GradGradGradGradGradGradGradGradGradGradGradGradGradGradGradGradGradGrad
 Berny optimization.
 Initialization pass.
                       ----------------------------
                       !    Initial Parameters    !
                       ! (Angstroms and Degrees)  !
 ----------------------                            ----------------------
 !      Name          Value   Derivative information (Atomic Units)     !
 ------------------------------------------------------------------------
 !       B1          2.0942   calculate D2E/DX2 analytically            !
 !       B2          3.0162   calculate D2E/DX2 analytically            !
 !       B3          3.4639   calculate D2E/DX2 analytically            !
 !       B4          2.1693   calculate D2E/DX2 analytically            !
 !       B5          2.4048   calculate D2E/DX2 analytically            !
 !       B6          1.0829   calculate D2E/DX2 analytically            !
 !       B7          0.9693   calculate D2E/DX2 analytically            !
 !       B8          0.9701   calculate D2E/DX2 analytically            !
 !       B9          1.0836   calculate D2E/DX2 analytically            !
 !       B10         2.5819   calculate D2E/DX2 analytically            !
 !       B11         1.4721   calculate D2E/DX2 analytically            !
 !       B12         1.4798   calculate D2E/DX2 analytically            !
 !       B13         1.0931   calculate D2E/DX2 analytically            !
 !       A1         76.1172   calculate D2E/DX2 analytically            !
 !       A2        106.2994   calculate D2E/DX2 analytically            !
 !       A3         97.4024   calculate D2E/DX2 analytically            !
 !       A4        151.8819   calculate D2E/DX2 analytically            !
 !       A5         86.7031   calculate D2E/DX2 analytically            !
 !       A6        124.8813   calculate D2E/DX2 analytically            !
 !       A7        121.4209   calculate D2E/DX2 analytically            !
 !       A8         91.9897   calculate D2E/DX2 analytically            !
 !       A9         96.7279   calculate D2E/DX2 analytically            !
 !       A10       107.9048   calculate D2E/DX2 analytically            !
 !       A11        79.5296   calculate D2E/DX2 analytically            !
 !       A12        87.9974   calculate D2E/DX2 analytically            !
 !       D1          5.712    calculate D2E/DX2 analytically            !
 !       D2         52.1926   calculate D2E/DX2 analytically            !
 !       D3         28.5325   calculate D2E/DX2 analytically            !
 !       D4         94.8195   calculate D2E/DX2 analytically            !
 !       D5        117.9483   calculate D2E/DX2 analytically            !
 !       D6        -93.3208   calculate D2E/DX2 analytically            !
 !       D7       -123.2501   calculate D2E/DX2 analytically            !
 !       D8        -31.3861   calculate D2E/DX2 analytically            !
 !       D9         28.7835   calculate D2E/DX2 analytically            !
 !       D10       179.2634   calculate D2E/DX2 analytically            !
 !       D11       143.1593   calculate D2E/DX2 analytically            !
 ------------------------------------------------------------------------
 Trust Radius=3.00D-01 FncErr=1.00D-07 GrdErr=1.00D-06
 Number of steps in this run=     46 maximum allowed number of steps=    100.
 Search for a saddle point of order  1.
 GradGradGradGradGradGradGradGradGradGradGradGradGradGradGradGradGradGrad

 ---------------------------------------------------------------------------------------------------
                            Z-MATRIX (ANGSTROMS AND DEGREES)
   CD    Cent   Atom    N1       Length/X        N2       Alpha/Y        N3        Beta/Z          J
 ---------------------------------------------------------------------------------------------------
      1      1  C 
      2      2  O        1   2.094159(     1)
      3      3  H        1   3.016221(     2)      2   76.117(    14)
      4      4  H        1   3.463864(     3)      2  106.299(    15)      3    5.712(    26)      0
      5      5  H        1   2.169309(     4)      2   97.402(    16)      3   52.193(    27)      0
      6      6  H        1   2.404799(     5)      2  151.882(    17)      5   28.533(    28)      0
      7      7  H        1   1.082852(     6)      2   86.703(    18)      5   94.819(    29)      0
      8      8  H        2   0.969250(     7)      1  124.881(    19)      7  117.948(    30)      0
      9      9  H        2   0.970080(     8)      1  121.421(    20)      7  -93.321(    31)      0
     10     10  H        1   1.083574(     9)      2   91.990(    21)      8 -123.250(    32)      0
     11     11  C        1   2.581902(    10)      2   96.728(    22)      8  -31.386(    33)      0
     12     12  C        1   1.472081(    11)      2  107.905(    23)     11   28.783(    34)      0
     13     13  O       12   1.479775(    12)      1   79.530(    24)      2  179.263(    35)      0
     14     14  H       11   1.093086(    13)      1   87.997(    25)     12  143.159(    36)      0
 ---------------------------------------------------------------------------------------------------
                         Z-Matrix orientation:                         
 ---------------------------------------------------------------------
 Center     Atomic      Atomic             Coordinates (Angstroms)
 Number     Number       Type             X           Y           Z
 ---------------------------------------------------------------------
      1          6           0        0.000000    0.000000    0.000000
      2          8           0        0.000000    0.000000    2.094159
      3          1           0        2.928113    0.000000    0.723702
      4          1           0        3.308138   -0.330895   -0.972154
      5          1           0        1.318723   -1.699635   -0.279487
      6          1           0        0.182665   -1.118543   -2.120979
      7          1           0       -0.906777   -0.588596    0.062275
      8          1           0        0.694992   -0.386253    2.648452
      9          1           0       -0.409742    0.719313    2.599882
     10          1           0       -0.079053    1.080031   -0.037621
     11          6           0        2.562016    0.103901   -0.302480
     12          6           0        1.254035   -0.624177   -0.452571
     13          8           0        0.616154   -0.327576   -1.754443
     14          1           0        2.453291    1.167040   -0.532158
 ---------------------------------------------------------------------
                    Distance matrix (angstroms):
                    1          2          3          4          5
     1  C    0.000000
     2  O    2.094159   0.000000
     3  H    3.016221   3.232955   0.000000
     4  H    3.463864   4.522781   1.769135   0.000000
     5  H    2.169309   3.203433   2.546622   2.512172   0.000000
     6  H    2.404799   4.364847   4.108629   3.421808   2.240399
     7  H    1.082852   2.301574   3.935773   4.347639   2.510789
     8  H    2.765231   0.969250   2.973329   4.465466   3.269073
     9  H    2.728495   0.970080   3.895990   5.261655   4.138800
    10  H    1.083574   2.391067   3.284681   3.786440   3.120708
    11  C    2.581902   3.509786   1.094473   1.092799   2.190673
    12  C    1.472081   2.906550   2.139101   2.139000   1.091216
    13  O    1.888127   3.911354   3.404947   2.803349   2.133458
    14  H    2.768359   3.778645   1.778939   1.779935   3.093366
                    6          7          8          9         10
     6  H    0.000000
     7  H    2.496863   0.000000
     8  H    4.852443   3.048757   0.000000
     9  H    5.100509   2.897778   1.563673   0.000000
    10  H    3.040165   1.865321   3.156600   2.682517   0.000000
    11  C    3.234597   3.555998   3.526192   4.199260   2.828113
    12  C    2.043482   2.221585   3.159981   3.727008   2.203096
    13  O    0.973597   2.384935   4.403992   4.594408   2.326402
    14  H    3.592212   3.837403   3.952292   4.266977   2.581647
                   11         12         13         14
    11  C    0.000000
    12  C    1.504473   0.000000
    13  O    2.465917   1.479775   0.000000
    14  H    1.093086   2.157083   2.665132   0.000000
 Stoichiometry    C3H9O2(1+)
 Framework group  C1[X(C3H9O2)]
 Deg. of freedom    36
 Full point group                 C1      NOp   1
 Largest Abelian subgroup         C1      NOp   1
 Largest concise Abelian subgroup C1      NOp   1
                         Standard orientation:                         
 ---------------------------------------------------------------------
 Center     Atomic      Atomic             Coordinates (Angstroms)
 Number     Number       Type             X           Y           Z
 ---------------------------------------------------------------------
      1          6           0        0.363853   -0.769616    0.232784
      2          8           0        2.264485    0.051592   -0.081412
      3          1           0       -0.171075    2.177194   -0.124646
      4          1           0       -1.899006    1.812067   -0.228445
      5          1           0       -0.601803    0.085233   -1.511534
      6          1           0       -1.750814   -1.589794   -0.566309
      7          1           0        0.728736   -1.651219   -0.279276
      8          1           0        2.444858    0.847646   -0.604107
      9          1           0        2.964417   -0.023331    0.586073
     10          1           0        0.473261   -0.707008    1.309000
     11          6           0       -0.942707    1.456191    0.162775
     12          6           0       -0.621658    0.107153   -0.420718
     13          8           0       -1.513014   -0.942507    0.120977
     14          1           0       -0.997273    1.414165    1.253689
 ---------------------------------------------------------------------
 Rotational constants (GHZ):      6.8598311      2.9810998      2.2682208
 Standard basis: 6-31++G(d,p) (6D, 7F)
 The following finite field(s) will be applied:
 An electric field of              0.0000  0.0000 -0.0025
 There are   149 symmetry adapted basis functions of A   symmetry.
 Integral buffers will be    131072 words long.
 Raffenetti 2 integral format.
 Two-electron integral symmetry is turned on.
   149 basis functions,   232 primitive gaussians,   149 cartesian basis functions
    21 alpha electrons       21 beta electrons
       nuclear repulsion energy       193.7879525014 Hartrees.
 NAtoms=   14 NActive=   14 NUniq=   14 SFac= 1.00D+00 NAtFMM=   50 NAOKFM=F Big=F
 One-electron integrals computed using PRISM.
 PrsmSu:  requested number of processors reduced to:  10 ShMem   1 Linda.
 NBasis=   149 RedAO= T  NBF=   149
 NBsUse=   149 1.00D-06 NBFU=   149
 The nuclear repulsion energy is now       193.7879525014 hartrees.
 Harris functional with IExCor=  402 diagonalized for initial guess.
 ExpMin= 3.60D-02 ExpMax= 5.48D+03 ExpMxC= 8.25D+02 IAcc=3 IRadAn=         0 AccDes= 0.00D+00
 HarFok:  IExCor=  402 AccDes= 0.00D+00 IRadAn=         0 IDoV= 1
 ScaDFX=  1.000000  1.000000  1.000000  1.000000
 FoFCou: FMM=F IPFlag=           0 FMFlag=      100000 FMFlg1=           0
         NFxFlg=           0 DoJE=T BraDBF=F KetDBF=T FulRan=T
         Omega=  0.000000  0.000000  1.000000  0.000000  0.000000 ICntrl=     500 IOpCl=  0
         NMat0=    1 NMatS0=    1 NMatT0=    0 NMatD0=    1 NMtDS0=    0 NMtDT0=    0
         I1Cent=           4 NGrid=           0.
 Petite list used in FoFCou.
 Initial guess orbital symmetries:
       Occupied  (A) (A) (A) (A) (A) (A) (A) (A) (A) (A) (A) (A)
                 (A) (A) (A) (A) (A) (A) (A) (A) (A)
       Virtual   (A) (A) (A) (A) (A) (A) (A) (A) (A) (A) (A) (A)
                 (A) (A) (A) (A) (A) (A) (A) (A) (A) (A) (A) (A)
                 (A) (A) (A) (A) (A) (A) (A) (A) (A) (A) (A) (A)
                 (A) (A) (A) (A) (A) (A) (A) (A) (A) (A) (A) (A)
                 (A) (A) (A) (A) (A) (A) (A) (A) (A) (A) (A) (A)
                 (A) (A) (A) (A) (A) (A) (A) (A) (A) (A) (A) (A)
                 (A) (A) (A) (A) (A) (A) (A) (A) (A) (A) (A) (A)
                 (A) (A) (A) (A) (A) (A) (A) (A) (A) (A) (A) (A)
                 (A) (A) (A) (A) (A) (A) (A) (A) (A) (A) (A) (A)
                 (A) (A) (A) (A) (A) (A) (A) (A) (A) (A) (A) (A)
                 (A) (A) (A) (A) (A) (A) (A) (A)
 The electronic state of the initial guess is 1-A.
 Requested convergence on RMS density matrix=1.00D-08 within 128 cycles.
 Requested convergence on MAX density matrix=1.00D-06.
 Requested convergence on             energy=1.00D-06.
 No special actions if energy rises.
 SCF Done:  E(RB3LYP) =  -269.885088027     A.U. after   12 cycles
             Convg  =    0.4362D-08             -V/T =  2.0095
 Range of M.O.s used for correlation:     1   149
 NBasis=   149 NAE=    21 NBE=    21 NFC=     0 NFV=     0
 NROrb=    149 NOA=    21 NOB=    21 NVA=   128 NVB=   128

 **** Warning!!: The largest alpha MO coefficient is  0.37869515D+02

 PrsmSu:  requested number of processors reduced to:  10 ShMem   1 Linda.
 PrsmSu:  requested number of processors reduced to:  17 ShMem   1 Linda.
 Symmetrizing basis deriv contribution to polar:
 IMax=3 JMax=2 DiffMx= 0.00D+00
 G2DrvN: will do     3 centers at a time, making    5 passes doing MaxLOS=2.
 Estimated number of processors is:   15
 Calling FoFCou, ICntrl=  3107 FMM=F I1Cent=   0 AccDes= 0.00D+00.
 CoulSu:  requested number of processors reduced to:  15 ShMem   1 Linda.
 Calling FoFCou, ICntrl=  3107 FMM=F I1Cent=   0 AccDes= 0.00D+00.
 CoulSu:  requested number of processors reduced to:  15 ShMem   1 Linda.
 Calling FoFCou, ICntrl=  3107 FMM=F I1Cent=   0 AccDes= 0.00D+00.
 CoulSu:  requested number of processors reduced to:  15 ShMem   1 Linda.
 Calling FoFCou, ICntrl=  3107 FMM=F I1Cent=   0 AccDes= 0.00D+00.
 CoulSu:  requested number of processors reduced to:  15 ShMem   1 Linda.
 Calling FoFCou, ICntrl=  3107 FMM=F I1Cent=   0 AccDes= 0.00D+00.
 CoulSu:  requested number of processors reduced to:  15 ShMem   1 Linda.
 FoFDir/FoFCou used for L=0 through L=2.
 End of G2Drv Frequency-dependent properties file   721 does not exist.
 End of G2Drv Frequency-dependent properties file   722 does not exist.
          IDoAtm=11111111111111
          Differentiating once with respect to nuclear coordinates.
 PrRfSu:  requested number of processors reduced to:  16 ShMem   1 Linda.
 CalDSu:  requested number of processors reduced to:  21 ShMem   1 Linda.
 PrRfSu:  requested number of processors reduced to:  16 ShMem   1 Linda.
 CalDSu:  requested number of processors reduced to:  21 ShMem   1 Linda.
          There are    45 degrees of freedom in the 1st order CPHF.  IDoFFX=5.
     39 vectors produced by pass  0 Test12= 5.97D-11 2.22D-07 XBig12= 1.05D-01 1.30D-01.
 AX will form    20 AO Fock derivatives at one time.
 PrRfSu:  requested number of processors reduced to:  16 ShMem   1 Linda.
 CalDSu:  requested number of processors reduced to:  22 ShMem   1 Linda.
 PrRfSu:  requested number of processors reduced to:  16 ShMem   1 Linda.
 CalDSu:  requested number of processors reduced to:  22 ShMem   1 Linda.
     39 vectors produced by pass  1 Test12= 5.97D-11 2.22D-07 XBig12= 1.53D-02 3.65D-02.
 PrRfSu:  requested number of processors reduced to:  16 ShMem   1 Linda.
 CalDSu:  requested number of processors reduced to:  22 ShMem   1 Linda.
 PrRfSu:  requested number of processors reduced to:  16 ShMem   1 Linda.
 CalDSu:  requested number of processors reduced to:  22 ShMem   1 Linda.
     39 vectors produced by pass  2 Test12= 5.97D-11 2.22D-07 XBig12= 8.19D-05 1.54D-03.
 PrRfSu:  requested number of processors reduced to:  16 ShMem   1 Linda.
 CalDSu:  requested number of processors reduced to:  22 ShMem   1 Linda.
 PrRfSu:  requested number of processors reduced to:  16 ShMem   1 Linda.
 CalDSu:  requested number of processors reduced to:  22 ShMem   1 Linda.
     39 vectors produced by pass  3 Test12= 5.97D-11 2.22D-07 XBig12= 1.72D-07 7.57D-05.
 PrRfSu:  requested number of processors reduced to:  16 ShMem   1 Linda.
 CalDSu:  requested number of processors reduced to:  22 ShMem   1 Linda.
 PrRfSu:  requested number of processors reduced to:  16 ShMem   1 Linda.
 CalDSu:  requested number of processors reduced to:  22 ShMem   1 Linda.
     12 vectors produced by pass  4 Test12= 5.97D-11 2.22D-07 XBig12= 2.04D-10 1.78D-06.
 PrRfSu:  requested number of processors reduced to:  17 ShMem   1 Linda.
 CalDSu:  requested number of processors reduced to:  23 ShMem   1 Linda.
 Inverted reduced A of dimension   168 with in-core refinement.
 End of Minotr Frequency-dependent properties file   721 does not exist.
 End of Minotr Frequency-dependent properties file   722 does not exist.

 **********************************************************************

            Population analysis using the SCF density.

 **********************************************************************

 Orbital symmetries:
       Occupied  (A) (A) (A) (A) (A) (A) (A) (A) (A) (A) (A) (A)
                 (A) (A) (A) (A) (A) (A) (A) (A) (A)
       Virtual   (A) (A) (A) (A) (A) (A) (A) (A) (A) (A) (A) (A)
                 (A) (A) (A) (A) (A) (A) (A) (A) (A) (A) (A) (A)
                 (A) (A) (A) (A) (A) (A) (A) (A) (A) (A) (A) (A)
                 (A) (A) (A) (A) (A) (A) (A) (A) (A) (A) (A) (A)
                 (A) (A) (A) (A) (A) (A) (A) (A) (A) (A) (A) (A)
                 (A) (A) (A) (A) (A) (A) (A) (A) (A) (A) (A) (A)
                 (A) (A) (A) (A) (A) (A) (A) (A) (A) (A) (A) (A)
                 (A) (A) (A) (A) (A) (A) (A) (A) (A) (A) (A) (A)
                 (A) (A) (A) (A) (A) (A) (A) (A) (A) (A) (A) (A)
                 (A) (A) (A) (A) (A) (A) (A) (A) (A) (A) (A) (A)
                 (A) (A) (A) (A) (A) (A) (A) (A)
 The electronic state is 1-A.
 Alpha  occ. eigenvalues --  -19.41264 -19.38764 -10.48971 -10.46575 -10.35757
 Alpha  occ. eigenvalues --   -1.27155  -1.23466  -0.99307  -0.90209  -0.80258
 Alpha  occ. eigenvalues --   -0.76144  -0.75272  -0.67134  -0.66282  -0.63153
 Alpha  occ. eigenvalues --   -0.60248  -0.58288  -0.55836  -0.54963  -0.54030
 Alpha  occ. eigenvalues --   -0.51824
 Alpha virt. eigenvalues --   -0.25529  -0.17711  -0.15516  -0.13041  -0.12260
 Alpha virt. eigenvalues --   -0.11019  -0.09857  -0.08659  -0.08098  -0.06762
 Alpha virt. eigenvalues --   -0.06360  -0.05117  -0.03993  -0.03364  -0.02511
 Alpha virt. eigenvalues --   -0.02391  -0.00626  -0.00285   0.00622   0.01122
 Alpha virt. eigenvalues --    0.02253   0.02905   0.03352   0.03988   0.04722
 Alpha virt. eigenvalues --    0.04981   0.06297   0.06407   0.08463   0.08674
 Alpha virt. eigenvalues --    0.09318   0.10872   0.12356   0.14074   0.14952
 Alpha virt. eigenvalues --    0.16341   0.18025   0.19017   0.21062   0.21713
 Alpha virt. eigenvalues --    0.22924   0.27286   0.44047   0.47689   0.49373
 Alpha virt. eigenvalues --    0.54325   0.58401   0.60043   0.61155   0.66033
 Alpha virt. eigenvalues --    0.70713   0.75228   0.77684   0.78473   0.80487
 Alpha virt. eigenvalues --    0.82263   0.82848   0.84643   0.90713   0.95934
 Alpha virt. eigenvalues --    0.96903   0.98241   0.99469   1.00408   1.04706
 Alpha virt. eigenvalues --    1.05227   1.08706   1.10426   1.15139   1.18887
 Alpha virt. eigenvalues --    1.30296   1.31307   1.35245   1.40342   1.41210
 Alpha virt. eigenvalues --    1.43259   1.46456   1.48913   1.56643   1.62646
 Alpha virt. eigenvalues --    1.64550   1.69730   1.77245   1.79931   1.85803
 Alpha virt. eigenvalues --    1.88356   1.91033   1.91929   1.95919   2.00937
 Alpha virt. eigenvalues --    2.04383   2.06243   2.10679   2.13396   2.18817
 Alpha virt. eigenvalues --    2.22772   2.29000   2.29730   2.30800   2.33531
 Alpha virt. eigenvalues --    2.38528   2.43639   2.43833   2.46261   2.49662
 Alpha virt. eigenvalues --    2.51307   2.54193   2.58947   2.63235   2.67572
 Alpha virt. eigenvalues --    2.69913   2.74986   2.81691   2.84772   3.08641
 Alpha virt. eigenvalues --    3.12771   3.16826   3.23596   3.26859   3.29203
 Alpha virt. eigenvalues --    3.30162   3.34559   3.35619   4.10163   4.15054
 Alpha virt. eigenvalues --    4.19303   4.34657   4.46087
          Condensed to atoms (all electrons):
              1          2          3          4          5          6
     1  C    5.669021  -0.041880  -0.018437   0.022970   0.006934  -0.043898
     2  O   -0.041880   8.135319   0.002172  -0.000172  -0.000806  -0.000130
     3  H   -0.018437   0.002172   0.517181  -0.018885  -0.007347  -0.001740
     4  H    0.022970  -0.000172  -0.018885   0.470438  -0.009151   0.000620
     5  H    0.006934  -0.000806  -0.007347  -0.009151   0.577743  -0.009853
     6  H   -0.043898  -0.000130  -0.001740   0.000620  -0.009853   0.347699
     7  H    0.309332  -0.021566   0.002740  -0.000952  -0.017445  -0.002799
     8  H   -0.012263   0.291596  -0.000399   0.000261   0.000123   0.000046
     9  H    0.015964   0.277923   0.000416  -0.000162   0.000909  -0.000146
    10  H    0.402643  -0.007063  -0.002799   0.000686   0.008479   0.001677
    11  C   -0.198999   0.021868   0.384475   0.414761  -0.041569   0.000561
    12  C    0.051713  -0.032493  -0.010185  -0.067219   0.302514   0.041082
    13  O   -0.093249   0.017143   0.005957  -0.005179  -0.016592   0.239684
    14  H   -0.013730  -0.000762  -0.025595  -0.013437   0.008394  -0.000116
              7          8          9         10         11         12
     1  C    0.309332  -0.012263   0.015964   0.402643  -0.198999   0.051713
     2  O   -0.021566   0.291596   0.277923  -0.007063   0.021868  -0.032493
     3  H    0.002740  -0.000399   0.000416  -0.002799   0.384475  -0.010185
     4  H   -0.000952   0.000261  -0.000162   0.000686   0.414761  -0.067219
     5  H   -0.017445   0.000123   0.000909   0.008479  -0.041569   0.302514
     6  H   -0.002799   0.000046  -0.000146   0.001677   0.000561   0.041082
     7  H    0.475985   0.000168  -0.003132  -0.028127   0.005044   0.038156
     8  H    0.000168   0.320115  -0.017832   0.002028  -0.001091   0.011667
     9  H   -0.003132  -0.017832   0.307803   0.000273  -0.007905  -0.000039
    10  H   -0.028127   0.002028   0.000273   0.434105   0.019321  -0.086383
    11  C    0.005044  -0.001091  -0.007905   0.019321   5.603828  -0.148345
    12  C    0.038156   0.011667  -0.000039  -0.086383  -0.148345   5.841933
    13  O   -0.005125   0.000621  -0.000880  -0.001511  -0.027640   0.152454
    14  H   -0.001123   0.000206   0.000111   0.006452   0.382916  -0.018280
             13         14
     1  C   -0.093249  -0.013730
     2  O    0.017143  -0.000762
     3  H    0.005957  -0.025595
     4  H   -0.005179  -0.013437
     5  H   -0.016592   0.008394
     6  H    0.239684  -0.000116
     7  H   -0.005125  -0.001123
     8  H    0.000621   0.000206
     9  H   -0.000880   0.000111
    10  H   -0.001511   0.006452
    11  C   -0.027640   0.382916
    12  C    0.152454  -0.018280
    13  O    8.083883   0.002855
    14  H    0.002855   0.471977
 Mulliken atomic charges:
              1
     1  C   -0.056120
     2  O   -0.641148
     3  H    0.172445
     4  H    0.205421
     5  H    0.197667
     6  H    0.427313
     7  H    0.248845
     8  H    0.404753
     9  H    0.426696
    10  H    0.250220
    11  C   -0.407223
    12  C   -0.076578
    13  O   -0.352420
    14  H    0.200131
 Sum of Mulliken atomic charges =   1.00000
 Mulliken charges with hydrogens summed into heavy atoms:
              1
     1  C    0.442944
     2  O    0.190301
    11  C    0.170773
    12  C    0.121089
    13  O    0.074893
 Sum of Mulliken charges with hydrogens summed into heavy atoms =   1.00000
 APT atomic charges:
              1
     1  C   -0.437915
     2  O   -1.346904
     3  H    0.396709
     4  H    0.566570
     5  H    0.437304
     6  H    0.745852
     7  H    0.550089
     8  H    0.639857
     9  H    0.865112
    10  H    0.461292
    11  C   -1.176393
    12  C   -0.367507
    13  O   -0.723076
    14  H    0.389009
 Sum of APT charges=   1.00000
 APT Atomic charges with hydrogens summed into heavy atoms:
              1
     1  C    0.573467
     2  O    0.158065
     3  H    0.000000
     4  H    0.000000
     5  H    0.000000
     6  H    0.000000
     7  H    0.000000
     8  H    0.000000
     9  H    0.000000
    10  H    0.000000
    11  C    0.175895
    12  C    0.069797
    13  O    0.022776
    14  H    0.000000
 Sum of APT charges=   1.00000
 Electronic spatial extent (au):  <R**2>=            545.1681
 Charge=              1.0000 electrons
 Dipole moment (field-independent basis, Debye):
    X=              2.6257    Y=             -0.5377    Z=             -0.8166  Tot=              2.8018
 Quadrupole moment (field-independent basis, Debye-Ang):
   XX=            -13.9545   YY=            -21.6713   ZZ=            -26.1650
   XY=              3.4925   XZ=              4.9184   YZ=              0.6680
 Traceless Quadrupole moment (field-independent basis, Debye-Ang):
   XX=              6.6425   YY=             -1.0744   ZZ=             -5.5681
   XY=              3.4925   XZ=              4.9184   YZ=              0.6680
 Octapole moment (field-independent basis, Debye-Ang**2):
  XXX=             42.9075  YYY=             -8.2632  ZZZ=              0.7578  XYY=             -2.2838
  XXY=              4.1875  XXZ=              1.0807  XZZ=              3.7275  YZZ=             -1.9051
  YYZ=             -4.9035  XYZ=             -8.0745
 Hexadecapole moment (field-independent basis, Debye-Ang**3):
 XXXX=           -236.0545 YYYY=           -174.7949 ZZZZ=            -52.5032 XXXY=             36.7055
 XXXZ=             34.4089 YYYX=             17.7327 YYYZ=              5.7930 ZZZX=              4.1303
 ZZZY=              0.1128 XXYY=            -71.2858 XXZZ=            -61.9839 YYZZ=            -40.7099
 XXYZ=             -2.4459 YYXZ=              3.3490 ZZXY=              4.7682
 N-N= 1.937879525014D+02 E-N=-1.009195350222D+03  KE= 2.673363345693D+02
  Exact polarizability:   0.000   0.000   0.000   0.000   0.000   0.000
 Approx polarizability:  80.921   7.525  58.365   0.894  -1.555  53.523
 PrsmSu:  requested number of processors reduced to:  10 ShMem   1 Linda.
 PrsmSu:  requested number of processors reduced to:  10 ShMem   1 Linda.
 Calling FoFJK, ICntrl=    100147 FMM=F ISym2X=0 I1Cent= 0 IOpClX= 0 NMat=1 NMatS=1 NMatT=0.
 CoulSu:  requested number of processors reduced to:  10 ShMem   1 Linda.
 CalDSu:  requested number of processors reduced to:  23 ShMem   1 Linda.
 ***** Axes restored to original set *****
 -------------------------------------------------------------------
 Center     Atomic                   Forces (Hartrees/Bohr)
 Number     Number              X              Y              Z
 -------------------------------------------------------------------
      1        6           0.000712830   -0.000358171   -0.000569393
      2        8          -0.000600866   -0.000756809    0.001020074
      3        1          -0.000074176    0.000099259    0.000186715
      4        1          -0.000024197    0.000305019   -0.000267061
      5        1          -0.000040458   -0.000123973   -0.000137790
      6        1          -0.000381117    0.000305632   -0.000869577
      7        1          -0.000017406    0.000260463   -0.000144776
      8        1          -0.000160861    0.001136615   -0.000834552
      9        1           0.000168332    0.000609027   -0.000655456
     10        1          -0.000141491    0.000330553   -0.000093012
     11        6           0.000023160    0.000099161   -0.000080078
     12        6           0.000068197    0.000364620   -0.001093692
     13        8           0.000071214    0.000286270    0.003362607
     14        1           0.000184374   -0.000095113   -0.000199095
 -------------------------------------------------------------------
 Cartesian Forces:  Max     0.003362607 RMS     0.000691418
 -----------------------------------------------------------------------------------------------
                       Internal Coordinate Forces (Hartree/Bohr or radian)
  Cent   Atom   N1       Length/X         N2         Alpha/Y        N3         Beta/Z          J
 -----------------------------------------------------------------------------------------------
      1  C 
      2  O        1  -0.000470(     1)
      3  H        1  -0.000027(     2)      2  -0.001135(    14)
      4  H        1   0.000023(     3)      2   0.001778(    15)      3  -0.001892(    26)     0
      5  H        1   0.000090(     4)      2   0.000522(    16)      3  -0.000260(    27)     0
      6  H        1   0.000596(     5)      2   0.003318(    17)      5   0.000700(    28)     0
      7  H        1  -0.000135(     6)      2   0.000281(    18)      5  -0.001399(    29)     0
      8  H        2  -0.001046(     7)      1  -0.000528(    19)      7   0.002565(    30)     0
      9  H        2   0.000039(     8)      1  -0.001451(    20)      7  -0.000700(    31)     0
     10  H        1   0.000343(     9)      2   0.000166(    21)      8  -0.000239(    32)     0
     11  C        1   0.000239(    10)      2   0.001760(    22)      8  -0.000950(    33)     0
     12  C        1  -0.000855(    11)      2  -0.001998(    23)     11  -0.001086(    34)     0
     13  O       12  -0.002932(    12)      1  -0.004627(    24)      2   0.000679(    35)     0
     14  H       11  -0.000069(    13)      1   0.000413(    25)     12  -0.000402(    36)     0
 -----------------------------------------------------------------------------------------------
 Internal  Forces:  Max     0.004627498 RMS     0.001433899

 GradGradGradGradGradGradGradGradGradGradGradGradGradGradGradGradGradGrad
 Berny optimization.
 Search for a saddle point.
 Step number   1 out of a maximum of   46
 All quantities printed in internal units (Hartrees-Bohrs-Radians)
 Swaping is turned off.
 Second derivative matrix not updated -- analytic derivatives used.
 ITU=  0
     Eigenvalues ---   -0.02085  -0.00067   0.00423   0.00752   0.01156
     Eigenvalues ---    0.02158   0.02802   0.03077   0.03448   0.06665
     Eigenvalues ---    0.07080   0.11512   0.13182   0.14179   0.16073
     Eigenvalues ---    0.21194   0.26020   0.27482   0.30755   0.34234
     Eigenvalues ---    0.35005   0.37459   0.38040   0.41698   0.45790
     Eigenvalues ---    0.52578   0.52991   0.57804   0.94491   1.42738
     Eigenvalues ---    3.61902   4.59358   5.45067   8.88039  19.05632
     Eigenvalues ---   31.08124
 Eigenvectors required to have negative eigenvalues:
                          B1        B5        A11       A5        A8
   1                    0.74693  -0.37220  -0.34274  -0.18799  -0.17202
                          D6        A6        D11       D3        B12
   1                    0.15244   0.13166   0.11403   0.11161   0.11002
 RFO step:  Lambda0=1.694297335D-05 Lambda=-1.32490468D-03.
 Linear search not attempted -- option 19 set.
 Maximum step size (   0.300) exceeded in Quadratic search.
    -- Step size scaled by   0.330
 Variable       Old X    -DE/DX   Delta X   Delta X   Delta X     New X
                                 (Linear)    (Quad)   (Total)
    B1        3.95739  -0.00047   0.00000   0.01511   0.01511   3.97250
    B2        5.69983  -0.00003   0.00000   0.03013   0.03013   5.72996
    B3        6.54575   0.00002   0.00000  -0.00262  -0.00262   6.54313
    B4        4.09940   0.00009   0.00000  -0.00003  -0.00003   4.09937
    B5        4.54441   0.00060   0.00000  -0.01012  -0.01012   4.53429
    B6        2.04629  -0.00014   0.00000  -0.00023  -0.00023   2.04606
    B7        1.83162  -0.00105   0.00000   0.00002   0.00002   1.83164
    B8        1.83319   0.00004   0.00000   0.00060   0.00060   1.83378
    B9        2.04766   0.00034   0.00000  -0.00040  -0.00040   2.04726
   B10        4.87909   0.00024   0.00000   0.00646   0.00646   4.88555
   B11        2.78183  -0.00085   0.00000  -0.00004  -0.00004   2.78179
   B12        2.79637  -0.00293   0.00000  -0.00004  -0.00004   2.79633
   B13        2.06563  -0.00007   0.00000  -0.00022  -0.00022   2.06542
    A1        1.32850  -0.00113   0.00000   0.01432   0.01432   1.34282
    A2        1.85527   0.00178   0.00000   0.01730   0.01730   1.87258
    A3        1.69999   0.00052   0.00000   0.01473   0.01473   1.71472
    A4        2.65084   0.00332   0.00000   0.01514   0.01514   2.66598
    A5        1.51325   0.00028   0.00000  -0.00946  -0.00946   1.50379
    A6        2.17959  -0.00053   0.00000  -0.02697  -0.02697   2.15262
    A7        2.11919  -0.00145   0.00000  -0.03159  -0.03159   2.08760
    A8        1.60552   0.00017   0.00000  -0.00477  -0.00477   1.60076
    A9        1.68822   0.00176   0.00000   0.00988   0.00988   1.69810
   A10        1.88329  -0.00200   0.00000   0.01125   0.01125   1.89455
   A11        1.38805  -0.00463   0.00000  -0.01086  -0.01086   1.37719
   A12        1.53585   0.00041   0.00000  -0.00386  -0.00386   1.53199
    D1        0.09969  -0.00189   0.00000  -0.01709  -0.01709   0.08260
    D2        0.91093  -0.00026   0.00000  -0.01117  -0.01117   0.89976
    D3        0.49799   0.00070   0.00000   0.01783   0.01783   0.51581
    D4        1.65491  -0.00140   0.00000  -0.00657  -0.00657   1.64834
    D5        2.05859   0.00256   0.00000   0.16483   0.16483   2.22341
    D6       -1.62876  -0.00070   0.00000   0.01276   0.01276  -1.61600
    D7       -2.15112  -0.00024   0.00000   0.16623   0.16623  -1.98489
    D8       -0.54779  -0.00095   0.00000   0.17081   0.17081  -0.37698
    D9        0.50237  -0.00109   0.00000  -0.00216  -0.00216   0.50021
   D10        3.12874   0.00068   0.00000   0.00654   0.00654   3.13528
   D11        2.49860  -0.00040   0.00000   0.02457   0.02457   2.52317
         Item               Value     Threshold  Converged?
 Maximum Force            0.004627     0.000015     NO 
 RMS     Force            0.001434     0.000010     NO 
 Maximum Displacement     0.170807     0.000060     NO 
 RMS     Displacement     0.050000     0.000040     NO 
 Predicted change in Energy=-4.160455D-04
 GradGradGradGradGradGradGradGradGradGradGradGradGradGradGradGradGradGrad

 ---------------------------------------------------------------------------------------------------
                            Z-MATRIX (ANGSTROMS AND DEGREES)
   CD    Cent   Atom    N1       Length/X        N2       Alpha/Y        N3        Beta/Z          J
 ---------------------------------------------------------------------------------------------------
      1      1  C 
      2      2  O        1   2.102154(     1)
      3      3  H        1   3.032166(     2)      2   76.938(    14)
      4      4  H        1   3.462477(     3)      2  107.291(    15)      3    4.733(    26)      0
      5      5  H        1   2.169294(     4)      2   98.246(    16)      3   51.552(    27)      0
      6      6  H        1   2.399444(     5)      2  152.749(    17)      5   29.554(    28)      0
      7      7  H        1   1.082728(     6)      2   86.161(    18)      5   94.443(    29)      0
      8      8  H        2   0.969261(     7)      1  123.336(    19)      7  127.392(    30)      0
      9      9  H        2   0.970395(     8)      1  119.611(    20)      7  -92.590(    31)      0
     10     10  H        1   1.083364(     9)      2   91.717(    21)      8 -113.726(    32)      0
     11     11  C        1   2.585322(    10)      2   97.294(    22)      8  -21.600(    33)      0
     12     12  C        1   1.472062(    11)      2  108.549(    23)     11   28.660(    34)      0
     13     13  O       12   1.479754(    12)      1   78.907(    24)      2  179.638(    35)      0
     14     14  H       11   1.092972(    13)      1   87.776(    25)     12  144.567(    36)      0
 ---------------------------------------------------------------------------------------------------
                         Z-Matrix orientation:                         
 ---------------------------------------------------------------------
 Center     Atomic      Atomic             Coordinates (Angstroms)
 Number     Number       Type             X           Y           Z
 ---------------------------------------------------------------------
      1          6           0        0.000000    0.000000    0.000000
      2          8           0        0.000000    0.000000    2.102154
      3          1           0        2.953709    0.000000    0.685301
      4          1           0        3.294732   -0.272774   -1.029117
      5          1           0        1.334915   -1.681376   -0.311144
      6          1           0        0.169856   -1.085460   -2.133133
      7          1           0       -0.895560   -0.604167    0.072491
      8          1           0        0.767471   -0.258333    2.634807
      9          1           0       -0.439743    0.719997    2.581630
     10          1           0       -0.096686    1.078553   -0.032454
     11          6           0        2.560895    0.134043   -0.328239
     12          6           0        1.257916   -0.604410   -0.468297
     13          8           0        0.594290   -0.295715   -1.754368
     14          1           0        2.437190    1.202372   -0.523073
 ---------------------------------------------------------------------
                    Distance matrix (angstroms):
                    1          2          3          4          5
     1  C    0.000000
     2  O    2.102154   0.000000
     3  H    3.032166   3.275953   0.000000
     4  H    3.462477   4.553518   1.769161   0.000000
     5  H    2.169294   3.230021   2.537798   2.518040   0.000000
     6  H    2.399444   4.375469   4.107509   3.412354   2.243239
     7  H    1.082728   2.299256   3.944290   4.345332   2.506507
     8  H    2.756439   0.969261   2.940568   4.451022   3.320493
     9  H    2.715986   0.970395   3.953476   5.288610   4.157421
    10  H    1.083364   2.393570   3.314115   3.784328   3.121596
    11  C    2.585322   3.533123   1.095232   1.093274   2.190677
    12  C    1.472062   2.924873   2.138179   2.138485   1.091092
    13  O    1.875749   3.913233   3.406801   2.796231   2.133419
    14  H    2.767526   3.778546   1.781195   1.779751   3.094499
                    6          7          8          9         10
     6  H    0.000000
     7  H    2.496303   0.000000
     8  H    4.875913   3.074205   0.000000
     9  H    5.085299   2.873492   1.554774   0.000000
    10  H    3.027680   1.865679   3.106173   2.660768   0.000000
    11  C    3.234486   3.557052   3.485680   4.220724   2.835899
    12  C    2.046207   2.220341   3.160626   3.733384   2.203922
    13  O    0.973295   2.377438   4.392749   4.571846   2.308907
    14  H    3.601010   3.837382   3.859251   4.260119   2.583905
                   11         12         13         14
    11  C    0.000000
    12  C    1.504221   0.000000
    13  O    2.466997   1.479754   0.000000
    14  H    1.092972   2.158274   2.675189   0.000000
 Stoichiometry    C3H9O2(1+)
 Framework group  C1[X(C3H9O2)]
 Deg. of freedom    36
 Full point group                 C1      NOp   1
 Largest Abelian subgroup         C1      NOp   1
 Largest concise Abelian subgroup C1      NOp   1
                         Standard orientation:                         
 ---------------------------------------------------------------------
 Center     Atomic      Atomic             Coordinates (Angstroms)
 Number     Number       Type             X           Y           Z
 ---------------------------------------------------------------------
      1          6           0        0.366616   -0.765163    0.219815
      2          8           0        2.276176    0.057624   -0.089468
      3          1           0       -0.212059    2.187442   -0.156070
      4          1           0       -1.934621    1.786947   -0.204198
      5          1           0       -0.622428    0.083415   -1.514411
      6          1           0       -1.745733   -1.602475   -0.551040
      7          1           0        0.737902   -1.637946   -0.302391
      8          1           0        2.422793    0.926286   -0.493691
      9          1           0        2.960583   -0.050369    0.589937
     10          1           0        0.481358   -0.709967    1.295671
     11          6           0       -0.959957    1.453104    0.161624
     12          6           0       -0.629121    0.107467   -0.423604
     13          8           0       -1.497463   -0.954436    0.131389
     14          1           0       -0.982725    1.418713    1.253818
 ---------------------------------------------------------------------
 Rotational constants (GHZ):      6.8454540      2.9719238      2.2585437
 Standard basis: 6-31++G(d,p) (6D, 7F)
 The following finite field(s) will be applied:
 An electric field of              0.0000  0.0000 -0.0025
 There are   149 symmetry adapted basis functions of A   symmetry.
 Integral buffers will be    131072 words long.
 Raffenetti 2 integral format.
 Two-electron integral symmetry is turned on.
   149 basis functions,   232 primitive gaussians,   149 cartesian basis functions
    21 alpha electrons       21 beta electrons
       nuclear repulsion energy       193.7096602685 Hartrees.
 NAtoms=   14 NActive=   14 NUniq=   14 SFac= 1.00D+00 NAtFMM=   50 NAOKFM=F Big=F
 One-electron integrals computed using PRISM.
 PrsmSu:  requested number of processors reduced to:  10 ShMem   1 Linda.
 NBasis=   149 RedAO= T  NBF=   149
 NBsUse=   149 1.00D-06 NBFU=   149
 The nuclear repulsion energy is now       193.7096602685 hartrees.
 Initial guess read from the read-write file.
 B after Tr=     0.000000    0.000000    0.000000
         Rot=    1.000000    0.000000    0.000000    0.000000 Ang=   0.00 deg.
 Initial guess orbital symmetries:
       Occupied  (A) (A) (A) (A) (A) (A) (A) (A) (A) (A) (A) (A)
                 (A) (A) (A) (A) (A) (A) (A) (A) (A)
       Virtual   (A) (A) (A) (A) (A) (A) (A) (A) (A) (A) (A) (A)
                 (A) (A) (A) (A) (A) (A) (A) (A) (A) (A) (A) (A)
                 (A) (A) (A) (A) (A) (A) (A) (A) (A) (A) (A) (A)
                 (A) (A) (A) (A) (A) (A) (A) (A) (A) (A) (A) (A)
                 (A) (A) (A) (A) (A) (A) (A) (A) (A) (A) (A) (A)
                 (A) (A) (A) (A) (A) (A) (A) (A) (A) (A) (A) (A)
                 (A) (A) (A) (A) (A) (A) (A) (A) (A) (A) (A) (A)
                 (A) (A) (A) (A) (A) (A) (A) (A) (A) (A) (A) (A)
                 (A) (A) (A) (A) (A) (A) (A) (A) (A) (A) (A) (A)
                 (A) (A) (A) (A) (A) (A) (A) (A) (A) (A) (A) (A)
                 (A) (A) (A) (A) (A) (A) (A) (A)
 Harris functional with IExCor=  402 diagonalized for initial guess.
 ExpMin= 3.60D-02 ExpMax= 5.48D+03 ExpMxC= 8.25D+02 IAcc=3 IRadAn=         0 AccDes= 0.00D+00
 HarFok:  IExCor=  402 AccDes= 0.00D+00 IRadAn=         0 IDoV= 1
 ScaDFX=  1.000000  1.000000  1.000000  1.000000
 FoFCou: FMM=F IPFlag=           0 FMFlag=      100000 FMFlg1=           0
         NFxFlg=           0 DoJE=T BraDBF=F KetDBF=T FulRan=T
         Omega=  0.000000  0.000000  1.000000  0.000000  0.000000 ICntrl=     500 IOpCl=  0
         NMat0=    1 NMatS0=    1 NMatT0=    0 NMatD0=    1 NMtDS0=    0 NMtDT0=    0
         I1Cent=           4 NGrid=           0.
 Petite list used in FoFCou.
 Requested convergence on RMS density matrix=1.00D-08 within 128 cycles.
 Requested convergence on MAX density matrix=1.00D-06.
 Requested convergence on             energy=1.00D-06.
 No special actions if energy rises.
 SCF Done:  E(RB3LYP) =  -269.885401273     A.U. after   10 cycles
             Convg  =    0.4524D-08             -V/T =  2.0095
 PrsmSu:  requested number of processors reduced to:  10 ShMem   1 Linda.
 PrsmSu:  requested number of processors reduced to:  23 ShMem   1 Linda.
 Calling FoFJK, ICntrl=      2127 FMM=F ISym2X=0 I1Cent= 0 IOpClX= 0 NMat=1 NMatS=1 NMatT=0.
 CoulSu:  requested number of processors reduced to:  16 ShMem   1 Linda.
 ***** Axes restored to original set *****
 -------------------------------------------------------------------
 Center     Atomic                   Forces (Hartrees/Bohr)
 Number     Number              X              Y              Z
 -------------------------------------------------------------------
      1        6           0.000242645    0.000294481   -0.000631165
      2        8           0.000024893   -0.000296661    0.001586308
      3        1          -0.000115058    0.000312199   -0.000221474
      4        1          -0.000161326    0.000336353   -0.000012850
      5        1          -0.000039359   -0.000095854   -0.000087744
      6        1          -0.000503118   -0.000152358   -0.000738221
      7        1          -0.000084665    0.000268199   -0.000118432
      8        1           0.000271981    0.000373070   -0.000930975
      9        1          -0.000637851    0.000592715   -0.000904001
     10        1           0.000000239    0.000236361   -0.000029863
     11        6           0.000245296   -0.000160843    0.000109371
     12        6           0.000040523    0.000270065   -0.000686049
     13        8           0.000313802    0.000536453    0.002424498
     14        1           0.000169189   -0.000052370   -0.000127220
 -------------------------------------------------------------------
 Cartesian Forces:  Max     0.002424498 RMS     0.000578343
 -----------------------------------------------------------------------------------------------
                       Internal Coordinate Forces (Hartree/Bohr or radian)
  Cent   Atom   N1       Length/X         N2         Alpha/Y        N3         Beta/Z          J
 -----------------------------------------------------------------------------------------------
      1  C 
      2  O        1  -0.000249(     1)
      3  H        1  -0.000162(     2)      2   0.001087(    14)
      4  H        1  -0.000176(     3)      2   0.000447(    15)      3  -0.002011(    26)     0
      5  H        1   0.000063(     4)      2   0.000326(    16)      3   0.000993(    27)     0
      6  H        1   0.000690(     5)      2   0.001239(    17)      5   0.001081(    28)     0
      7  H        1  -0.000088(     6)      2   0.000231(    18)      5  -0.000455(    29)     0
      8  H        2  -0.000396(     7)      1  -0.001564(    19)      7   0.000630(    30)     0
      9  H        2   0.000282(     8)      1  -0.002201(    20)      7   0.000375(    31)     0
     10  H        1   0.000236(     9)      2   0.000047(    21)      8   0.000044(    32)     0
     11  C        1   0.000402(    10)      2   0.000130(    22)      8   0.000000(    33)     0
     12  C        1  -0.000581(    11)      2  -0.001776(    23)     11  -0.001326(    34)     0
     13  O       12  -0.002136(    12)      1  -0.003232(    24)      2   0.001660(    35)     0
     14  H       11  -0.000048(    13)      1   0.000370(    25)     12  -0.000236(    36)     0
 -----------------------------------------------------------------------------------------------
 Internal  Forces:  Max     0.003232432 RMS     0.001075044

 GradGradGradGradGradGradGradGradGradGradGradGradGradGradGradGradGradGrad
 Berny optimization.
 Search for a saddle point.
 Step number   2 out of a maximum of   46
 All quantities printed in internal units (Hartrees-Bohrs-Radians)
 Swaping is turned off.
 Update second derivatives using D2CorN and points    1    2
 ITU=  0  0
     Eigenvalues ---   -0.02085  -0.00030   0.00465   0.00752   0.01157
     Eigenvalues ---    0.02162   0.02803   0.03077   0.03448   0.06665
     Eigenvalues ---    0.07080   0.11512   0.13182   0.14179   0.16073
     Eigenvalues ---    0.21194   0.26020   0.27483   0.30756   0.34234
     Eigenvalues ---    0.35005   0.37459   0.38040   0.41697   0.45790
     Eigenvalues ---    0.52578   0.52991   0.57804   0.94491   1.42738
     Eigenvalues ---    3.61902   4.59358   5.45067   8.88039  19.05632
     Eigenvalues ---   31.08124
 Eigenvectors required to have negative eigenvalues:
                          B1        B5        A11       A5        A8
   1                    0.74710  -0.37229  -0.34282  -0.18811  -0.17203
                          D6        A6        D11       D3        B12
   1                    0.15181   0.13164   0.11416   0.11172   0.11004
 RFO step:  Lambda0=8.007042170D-06 Lambda=-8.60951221D-04.
 Linear search not attempted -- option 19 set.
 Maximum step size (   0.300) exceeded in Quadratic search.
    -- Step size scaled by   0.296
 Variable       Old X    -DE/DX   Delta X   Delta X   Delta X     New X
                                 (Linear)    (Quad)   (Total)
    B1        3.97250  -0.00025   0.00000   0.00876   0.00876   3.98126
    B2        5.72996  -0.00016   0.00000   0.01924   0.01924   5.74920
    B3        6.54313  -0.00018   0.00000  -0.00181  -0.00181   6.54132
    B4        4.09937   0.00006   0.00000  -0.00032  -0.00032   4.09905
    B5        4.53429   0.00069   0.00000  -0.00566  -0.00566   4.52863
    B6        2.04606  -0.00009   0.00000  -0.00013  -0.00013   2.04593
    B7        1.83164  -0.00040   0.00000   0.00009   0.00009   1.83173
    B8        1.83378   0.00028   0.00000   0.00035   0.00035   1.83413
    B9        2.04726   0.00024   0.00000  -0.00026  -0.00026   2.04700
   B10        4.88555   0.00040   0.00000   0.00401   0.00401   4.88956
   B11        2.78179  -0.00058   0.00000  -0.00002  -0.00002   2.78177
   B12        2.79633  -0.00214   0.00000  -0.00001  -0.00001   2.79632
   B13        2.06542  -0.00005   0.00000  -0.00011  -0.00011   2.06531
    A1        1.34282   0.00109   0.00000   0.00589   0.00589   1.34871
    A2        1.87258   0.00045   0.00000   0.00702   0.00702   1.87960
    A3        1.71472   0.00033   0.00000   0.00416   0.00416   1.71888
    A4        2.66598   0.00124   0.00000   0.00535   0.00535   2.67133
    A5        1.50379   0.00023   0.00000  -0.00403  -0.00403   1.49977
    A6        2.15262  -0.00156   0.00000  -0.01635  -0.01635   2.13627
    A7        2.08760  -0.00220   0.00000  -0.01822  -0.01822   2.06938
    A8        1.60076   0.00005   0.00000  -0.00072  -0.00072   1.60004
    A9        1.69810   0.00013   0.00000   0.00311   0.00311   1.70122
   A10        1.89455  -0.00178   0.00000   0.00246   0.00246   1.89701
   A11        1.37719  -0.00323   0.00000  -0.00625  -0.00625   1.37094
   A12        1.53199   0.00037   0.00000  -0.00221  -0.00221   1.52977
    D1        0.08260  -0.00201   0.00000  -0.00818  -0.00818   0.07442
    D2        0.89976   0.00099   0.00000  -0.00541  -0.00541   0.89435
    D3        0.51581   0.00108   0.00000   0.00589   0.00589   0.52170
    D4        1.64834  -0.00045   0.00000  -0.00468  -0.00468   1.64367
    D5        2.22341   0.00063   0.00000   0.16113   0.16113   2.38454
    D6       -1.61600   0.00038   0.00000   0.09106   0.09106  -1.52494
    D7       -1.98489   0.00004   0.00000   0.16308   0.16308  -1.82181
    D8       -0.37698   0.00000   0.00000   0.16575   0.16575  -0.21123
    D9        0.50021  -0.00133   0.00000  -0.00107  -0.00107   0.49914
   D10        3.13528   0.00166   0.00000   0.00254   0.00254   3.13782
   D11        2.52317  -0.00024   0.00000   0.01456   0.01456   2.53772
         Item               Value     Threshold  Converged?
 Maximum Force            0.003232     0.000015     NO 
 RMS     Force            0.001075     0.000010     NO 
 Maximum Displacement     0.165752     0.000060     NO 
 RMS     Displacement     0.050000     0.000040     NO 
 Predicted change in Energy=-2.556340D-04
 GradGradGradGradGradGradGradGradGradGradGradGradGradGradGradGradGradGrad

 ---------------------------------------------------------------------------------------------------
                            Z-MATRIX (ANGSTROMS AND DEGREES)
   CD    Cent   Atom    N1       Length/X        N2       Alpha/Y        N3        Beta/Z          J
 ---------------------------------------------------------------------------------------------------
      1      1  C 
      2      2  O        1   2.106791(     1)
      3      3  H        1   3.042348(     2)      2   77.275(    14)
      4      4  H        1   3.461518(     3)      2  107.693(    15)      3    4.264(    26)      0
      5      5  H        1   2.169124(     4)      2   98.485(    16)      3   51.242(    27)      0
      6      6  H        1   2.396447(     5)      2  153.056(    17)      5   29.891(    28)      0
      7      7  H        1   1.082657(     6)      2   85.930(    18)      5   94.175(    29)      0
      8      8  H        2   0.969309(     7)      1  122.399(    19)      7  136.624(    30)      0
      9      9  H        2   0.970582(     8)      1  118.567(    20)      7  -87.373(    31)      0
     10     10  H        1   1.083227(     9)      2   91.675(    21)      8 -104.382(    32)      0
     11     11  C        1   2.587444(    10)      2   97.472(    22)      8  -12.103(    33)      0
     12     12  C        1   1.472049(    11)      2  108.691(    23)     11   28.599(    34)      0
     13     13  O       12   1.479748(    12)      1   78.549(    24)      2  179.784(    35)      0
     14     14  H       11   1.092916(    13)      1   87.650(    25)     12  145.401(    36)      0
 ---------------------------------------------------------------------------------------------------
                         Z-Matrix orientation:                         
 ---------------------------------------------------------------------
 Center     Atomic      Atomic             Coordinates (Angstroms)
 Number     Number       Type             X           Y           Z
 ---------------------------------------------------------------------
      1          6           0        0.000000    0.000000    0.000000
      2          8           0        0.000000    0.000000    2.106791
      3          1           0        2.967626    0.000000    0.670128
      4          1           0        3.288658   -0.245196   -1.052007
      5          1           0        1.343066   -1.672975   -0.320043
      6          1           0        0.167363   -1.072906   -2.136311
      7          1           0       -0.889116   -0.612957    0.076835
      8          1           0        0.808802   -0.125116    2.626160
      9          1           0       -0.515491    0.678893    2.570907
     10          1           0       -0.105439    1.077618   -0.031671
     11          6           0        2.561192    0.148088   -0.336497
     12          6           0        1.260778   -0.595684   -0.471727
     13          8           0        0.586619   -0.283208   -1.751384
     14          1           0        2.430594    1.218420   -0.514823
 ---------------------------------------------------------------------
                    Distance matrix (angstroms):
                    1          2          3          4          5
     1  C    0.000000
     2  O    2.106791   0.000000
     3  H    3.042348   3.297091   0.000000
     4  H    3.461518   4.566552   1.768879   0.000000
     5  H    2.169124   3.239166   2.533472   2.521835   0.000000
     6  H    2.396447   4.379846   4.107153   3.406362   2.245260
     7  H    1.082657   2.299340   3.949959   4.343193   2.502756
     8  H    2.750733   0.969309   2.915859   4.437681   3.370670
     9  H    2.708540   0.970582   4.025663   5.333947   4.164506
    10  H    1.083227   2.396956   3.331293   3.782963   3.122032
    11  C    2.587444   3.542780   1.095633   1.093542   2.190976
    12  C    1.472049   2.931409   2.138225   2.138191   1.091025
    13  O    1.868602   3.912779   3.407804   2.791342   2.133636
    14  H    2.767197   3.776930   1.782431   1.779610   3.095291
                    6          7          8          9         10
     6  H    0.000000
     7  H    2.495138   0.000000
     8  H    4.898048   3.101608   0.000000
     9  H    5.068825   2.833526   1.550238   0.000000
    10  H    3.021371   1.866539   3.057200   2.664683   0.000000
    11  C    3.234282   3.557338   3.452947   4.266231   2.840398
    12  C    2.047959   2.218843   3.165852   3.746639   2.204572
    13  O    0.973430   2.372532   4.386029   4.563166   2.299609
    14  H    3.605775   3.837248   3.781676   4.300260   2.585483
                   11         12         13         14
    11  C    0.000000
    12  C    1.504181   0.000000
    13  O    2.467157   1.479748   0.000000
    14  H    1.092916   2.159005   2.680339   0.000000
 Stoichiometry    C3H9O2(1+)
 Framework group  C1[X(C3H9O2)]
 Deg. of freedom    36
 Full point group                 C1      NOp   1
 Largest Abelian subgroup         C1      NOp   1
 Largest concise Abelian subgroup C1      NOp   1
                         Standard orientation:                         
 ---------------------------------------------------------------------
 Center     Atomic      Atomic             Coordinates (Angstroms)
 Number     Number       Type             X           Y           Z
 ---------------------------------------------------------------------
      1          6           0        0.368937   -0.762060    0.214492
      2          8           0        2.280115    0.068151   -0.096499
      3          1           0       -0.239438    2.193385   -0.174230
      4          1           0       -1.956639    1.769344   -0.192694
      5          1           0       -0.631432    0.080445   -1.515985
      6          1           0       -1.739958   -1.612077   -0.542471
      7          1           0        0.744572   -1.629514   -0.313305
      8          1           0        2.407838    0.987674   -0.375289
      9          1           0        2.977172   -0.115247    0.553506
     10          1           0        0.486215   -0.709506    1.290068
     11          6           0       -0.971896    1.450188    0.159802
     12          6           0       -0.632544    0.106653   -0.425276
     13          8           0       -1.487274   -0.962431    0.136996
     14          1           0       -0.978040    1.421047    1.252313
 ---------------------------------------------------------------------
 Rotational constants (GHZ):      6.8394692      2.9694271      2.2536372
 Standard basis: 6-31++G(d,p) (6D, 7F)
 The following finite field(s) will be applied:
 An electric field of              0.0000  0.0000 -0.0025
 There are   149 symmetry adapted basis functions of A   symmetry.
 Integral buffers will be    131072 words long.
 Raffenetti 2 integral format.
 Two-electron integral symmetry is turned on.
   149 basis functions,   232 primitive gaussians,   149 cartesian basis functions
    21 alpha electrons       21 beta electrons
       nuclear repulsion energy       193.6823624766 Hartrees.
 NAtoms=   14 NActive=   14 NUniq=   14 SFac= 1.00D+00 NAtFMM=   50 NAOKFM=F Big=F
 One-electron integrals computed using PRISM.
 PrsmSu:  requested number of processors reduced to:  10 ShMem   1 Linda.
 NBasis=   149 RedAO= T  NBF=   149
 NBsUse=   149 1.00D-06 NBFU=   149
 The nuclear repulsion energy is now       193.6823624766 hartrees.
 Initial guess read from the read-write file.
 B after Tr=     0.000000    0.000000    0.000000
         Rot=    1.000000    0.000000    0.000000    0.000000 Ang=   0.00 deg.
 Initial guess orbital symmetries:
       Occupied  (A) (A) (A) (A) (A) (A) (A) (A) (A) (A) (A) (A)
                 (A) (A) (A) (A) (A) (A) (A) (A) (A)
       Virtual   (A) (A) (A) (A) (A) (A) (A) (A) (A) (A) (A) (A)
                 (A) (A) (A) (A) (A) (A) (A) (A) (A) (A) (A) (A)
                 (A) (A) (A) (A) (A) (A) (A) (A) (A) (A) (A) (A)
                 (A) (A) (A) (A) (A) (A) (A) (A) (A) (A) (A) (A)
                 (A) (A) (A) (A) (A) (A) (A) (A) (A) (A) (A) (A)
                 (A) (A) (A) (A) (A) (A) (A) (A) (A) (A) (A) (A)
                 (A) (A) (A) (A) (A) (A) (A) (A) (A) (A) (A) (A)
                 (A) (A) (A) (A) (A) (A) (A) (A) (A) (A) (A) (A)
                 (A) (A) (A) (A) (A) (A) (A) (A) (A) (A) (A) (A)
                 (A) (A) (A) (A) (A) (A) (A) (A) (A) (A) (A) (A)
                 (A) (A) (A) (A) (A) (A) (A) (A)
 Harris functional with IExCor=  402 diagonalized for initial guess.
 ExpMin= 3.60D-02 ExpMax= 5.48D+03 ExpMxC= 8.25D+02 IAcc=3 IRadAn=         0 AccDes= 0.00D+00
 HarFok:  IExCor=  402 AccDes= 0.00D+00 IRadAn=         0 IDoV= 1
 ScaDFX=  1.000000  1.000000  1.000000  1.000000
 FoFCou: FMM=F IPFlag=           0 FMFlag=      100000 FMFlg1=           0
         NFxFlg=           0 DoJE=T BraDBF=F KetDBF=T FulRan=T
         Omega=  0.000000  0.000000  1.000000  0.000000  0.000000 ICntrl=     500 IOpCl=  0
         NMat0=    1 NMatS0=    1 NMatT0=    0 NMatD0=    1 NMtDS0=    0 NMtDT0=    0
         I1Cent=           4 NGrid=           0.
 Petite list used in FoFCou.
 Requested convergence on RMS density matrix=1.00D-08 within 128 cycles.
 Requested convergence on MAX density matrix=1.00D-06.
 Requested convergence on             energy=1.00D-06.
 No special actions if energy rises.
 SCF Done:  E(RB3LYP) =  -269.885617998     A.U. after   10 cycles
             Convg  =    0.3377D-08             -V/T =  2.0095
 PrsmSu:  requested number of processors reduced to:  10 ShMem   1 Linda.
 PrsmSu:  requested number of processors reduced to:  23 ShMem   1 Linda.
 Calling FoFJK, ICntrl=      2127 FMM=F ISym2X=0 I1Cent= 0 IOpClX= 0 NMat=1 NMatS=1 NMatT=0.
 CoulSu:  requested number of processors reduced to:  16 ShMem   1 Linda.
 ***** Axes restored to original set *****
 -------------------------------------------------------------------
 Center     Atomic                   Forces (Hartrees/Bohr)
 Number     Number              X              Y              Z
 -------------------------------------------------------------------
      1        6           0.000020404    0.000652771   -0.000674603
      2        8           0.000314886   -0.000007159    0.001776608
      3        1          -0.000171831    0.000384428   -0.000411811
      4        1          -0.000239718    0.000349755    0.000119404
      5        1          -0.000028028   -0.000044235   -0.000050434
      6        1          -0.000432336   -0.000181727   -0.000558537
      7        1          -0.000153979    0.000306191   -0.000130212
      8        1           0.000585184    0.000126505   -0.000959418
      9        1          -0.001051262    0.000380949   -0.000970899
     10        1           0.000037316    0.000184882    0.000020477
     11        6           0.000362347   -0.000298671    0.000219193
     12        6           0.000095621    0.000168977   -0.000381730
     13        8           0.000260179    0.000464503    0.001738332
     14        1           0.000157083   -0.000026638   -0.000105403
 -------------------------------------------------------------------
 Cartesian Forces:  Max     0.001776608 RMS     0.000548836
 -----------------------------------------------------------------------------------------------
                       Internal Coordinate Forces (Hartree/Bohr or radian)
  Cent   Atom   N1       Length/X         N2         Alpha/Y        N3         Beta/Z          J
 -----------------------------------------------------------------------------------------------
      1  C 
      2  O        1  -0.000154(     1)
      3  H        1  -0.000258(     2)      2   0.002092(    14)
      4  H        1  -0.000289(     3)      2  -0.000217(    15)      3  -0.002063(    26)     0
      5  H        1   0.000024(     4)      2   0.000194(    16)      3   0.001498(    27)     0
      6  H        1   0.000549(     5)      2   0.000690(    17)      5   0.000934(    28)     0
      7  H        1  -0.000056(     6)      2   0.000259(    18)      5   0.000363(    29)     0
      8  H        2  -0.000042(     7)      1  -0.002032(    19)      7  -0.000648(    30)     0
      9  H        2   0.000361(     8)      1  -0.002388(    20)      7   0.000978(    31)     0
     10  H        1   0.000180(     9)      2  -0.000053(    21)      8   0.000113(    32)     0
     11  C        1   0.000481(    10)      2  -0.000646(    22)      8   0.000867(    33)     0
     12  C        1  -0.000386(    11)      2  -0.001618(    23)     11  -0.001056(    34)     0
     13  O       12  -0.001524(    12)      1  -0.002353(    24)      2   0.001439(    35)     0
     14  H       11  -0.000028(    13)      1   0.000344(    25)     12  -0.000184(    36)     0
 -----------------------------------------------------------------------------------------------
 Internal  Forces:  Max     0.002387638 RMS     0.001050577

 GradGradGradGradGradGradGradGradGradGradGradGradGradGradGradGradGradGrad
 Berny optimization.
 Search for a saddle point.
 Step number   3 out of a maximum of   46
 All quantities printed in internal units (Hartrees-Bohrs-Radians)
 Swaping is turned off.
 Update second derivatives using D2CorN and points    1    2    3
 ITU=  0  0  0
     Eigenvalues ---   -0.02085  -0.00051   0.00499   0.00751   0.01158
     Eigenvalues ---    0.02165   0.02803   0.03077   0.03448   0.06665
     Eigenvalues ---    0.07080   0.11512   0.13182   0.14179   0.16074
     Eigenvalues ---    0.21194   0.26020   0.27483   0.30757   0.34234
     Eigenvalues ---    0.35006   0.37459   0.38041   0.41696   0.45790
     Eigenvalues ---    0.52578   0.52991   0.57804   0.94491   1.42738
     Eigenvalues ---    3.61902   4.59358   5.45067   8.88039  19.05633
     Eigenvalues ---   31.08124
 Eigenvectors required to have negative eigenvalues:
                          B1        B5        A11       A5        A8
   1                    0.74729  -0.37237  -0.34288  -0.18824  -0.17201
                          D6        A6        D11       D3        B12
   1                    0.15183   0.13160   0.11429   0.11185   0.11005
 RFO step:  Lambda0=4.581645564D-06 Lambda=-1.02242528D-03.
 Linear search not attempted -- option 19 set.
 Maximum step size (   0.300) exceeded in Quadratic search.
    -- Step size scaled by   0.299
 Variable       Old X    -DE/DX   Delta X   Delta X   Delta X     New X
                                 (Linear)    (Quad)   (Total)
    B1        3.98126  -0.00015   0.00000   0.00173   0.00173   3.98299
    B2        5.74920  -0.00026   0.00000   0.01319   0.01319   5.76239
    B3        6.54132  -0.00029   0.00000  -0.00160  -0.00160   6.53973
    B4        4.09905   0.00002   0.00000  -0.00057  -0.00057   4.09848
    B5        4.52863   0.00055   0.00000  -0.00193  -0.00193   4.52670
    B6        2.04593  -0.00006   0.00000  -0.00003  -0.00003   2.04590
    B7        1.83173  -0.00004   0.00000   0.00007   0.00007   1.83180
    B8        1.83413   0.00036   0.00000   0.00013   0.00013   1.83427
    B9        2.04700   0.00018   0.00000  -0.00018  -0.00018   2.04683
   B10        4.88956   0.00048   0.00000   0.00270   0.00270   4.89226
   B11        2.78177  -0.00039   0.00000   0.00008   0.00008   2.78185
   B12        2.79632  -0.00152   0.00000  -0.00014  -0.00014   2.79618
   B13        2.06531  -0.00003   0.00000  -0.00004  -0.00004   2.06527
    A1        1.34871   0.00209   0.00000  -0.00063  -0.00063   1.34808
    A2        1.87960  -0.00022   0.00000  -0.00021  -0.00021   1.87939
    A3        1.71888   0.00019   0.00000  -0.00118  -0.00118   1.71770
    A4        2.67133   0.00069   0.00000   0.00174   0.00174   2.67307
    A5        1.49977   0.00026   0.00000   0.00184   0.00184   1.50161
    A6        2.13627  -0.00203   0.00000  -0.00977  -0.00977   2.12650
    A7        2.06938  -0.00239   0.00000  -0.00802  -0.00802   2.06137
    A8        1.60004  -0.00005   0.00000   0.00040   0.00040   1.60044
    A9        1.70122  -0.00065   0.00000  -0.00265  -0.00265   1.69856
   A10        1.89701  -0.00162   0.00000  -0.00301  -0.00301   1.89400
   A11        1.37094  -0.00235   0.00000  -0.00331  -0.00331   1.36762
   A12        1.52977   0.00034   0.00000  -0.00126  -0.00126   1.52851
    D1        0.07442  -0.00206   0.00000  -0.00500  -0.00500   0.06942
    D2        0.89435   0.00150   0.00000  -0.00359  -0.00359   0.89076
    D3        0.52170   0.00093   0.00000  -0.00499  -0.00499   0.51672
    D4        1.64367   0.00036   0.00000  -0.00323  -0.00323   1.64043
    D5        2.38454  -0.00065   0.00000   0.15059   0.15059   2.53512
    D6       -1.52494   0.00098   0.00000   0.14036   0.14036  -1.38458
    D7       -1.82181   0.00011   0.00000   0.15248   0.15248  -1.66932
    D8       -0.21123   0.00087   0.00000   0.15431   0.15431  -0.05692
    D9        0.49914  -0.00106   0.00000  -0.00120  -0.00120   0.49794
   D10        3.13782   0.00144   0.00000   0.00311   0.00311   3.14094
   D11        2.53772  -0.00018   0.00000   0.00942   0.00942   2.54714
         Item               Value     Threshold  Converged?
 Maximum Force            0.002388     0.000015     NO 
 RMS     Force            0.001051     0.000010     NO 
 Maximum Displacement     0.154309     0.000060     NO 
 RMS     Displacement     0.050000     0.000040     NO 
 Predicted change in Energy=-2.604711D-04
 GradGradGradGradGradGradGradGradGradGradGradGradGradGradGradGradGradGrad

 ---------------------------------------------------------------------------------------------------
                            Z-MATRIX (ANGSTROMS AND DEGREES)
   CD    Cent   Atom    N1       Length/X        N2       Alpha/Y        N3        Beta/Z          J
 ---------------------------------------------------------------------------------------------------
      1      1  C 
      2      2  O        1   2.107707(     1)
      3      3  H        1   3.049327(     2)      2   77.239(    14)
      4      4  H        1   3.460674(     3)      2  107.681(    15)      3    3.977(    26)      0
      5      5  H        1   2.168823(     4)      2   98.417(    16)      3   51.037(    27)      0
      6      6  H        1   2.395426(     5)      2  153.156(    17)      5   29.606(    28)      0
      7      7  H        1   1.082642(     6)      2   86.036(    18)      5   93.990(    29)      0
      8      8  H        2   0.969348(     7)      1  121.839(    19)      7  145.252(    30)      0
      9      9  H        2   0.970652(     8)      1  118.108(    20)      7  -79.331(    31)      0
     10     10  H        1   1.083134(     9)      2   91.698(    21)      8  -95.645(    32)      0
     11     11  C        1   2.588873(    10)      2   97.320(    22)      8   -3.261(    33)      0
     12     12  C        1   1.472094(    11)      2  108.518(    23)     11   28.530(    34)      0
     13     13  O       12   1.479676(    12)      1   78.359(    24)      2  179.962(    35)      0
     14     14  H       11   1.092895(    13)      1   87.577(    25)     12  145.940(    36)      0
 ---------------------------------------------------------------------------------------------------
                         Z-Matrix orientation:                         
 ---------------------------------------------------------------------
 Center     Atomic      Atomic             Coordinates (Angstroms)
 Number     Number       Type             X           Y           Z
 ---------------------------------------------------------------------
      1          6           0        0.000000    0.000000    0.000000
      2          8           0        0.000000    0.000000    2.107707
      3          1           0        2.974012    0.000000    0.673532
      4          1           0        3.289257   -0.228707   -1.051067
      5          1           0        1.349111   -1.668205   -0.317466
      6          1           0        0.175875   -1.067297   -2.137291
      7          1           0       -0.885014   -0.619081    0.074848
      8          1           0        0.823485    0.003238    2.619075
      9          1           0       -0.612164    0.598579    2.565009
     10          1           0       -0.110736    1.076980   -0.032098
     11          6           0        2.563018    0.156168   -0.329871
     12          6           0        1.264650   -0.590868   -0.467543
     13          8           0        0.590739   -0.277055   -1.746921
     14          1           0        2.429296    1.227581   -0.499022
 ---------------------------------------------------------------------
                    Distance matrix (angstroms):
                    1          2          3          4          5
     1  C    0.000000
     2  O    2.107707   0.000000
     3  H    3.049327   3.301758   0.000000
     4  H    3.460674   4.566112   1.768030   0.000000
     5  H    2.168823   3.237974   2.530867   2.524775   0.000000
     6  H    2.395426   4.380647   4.107240   3.402391   2.247072
[...]
    B4        4.09395   0.00000   0.00000   0.00000   0.00000   4.09395
    B5        4.51119   0.00000   0.00000   0.00000   0.00000   4.51119
    B6        2.04698   0.00000   0.00000   0.00000   0.00000   2.04698
    B7        1.83425   0.00000   0.00000   0.00000   0.00000   1.83425
    B8        1.83344   0.00000   0.00000   0.00000   0.00000   1.83344
    B9        2.04701   0.00000   0.00000   0.00000   0.00000   2.04701
   B10        4.88671   0.00000   0.00000   0.00000   0.00000   4.88671
   B11        2.77605   0.00000   0.00000   0.00000   0.00000   2.77605
   B12        2.80425   0.00000   0.00000   0.00000   0.00000   2.80425
   B13        2.06581   0.00000   0.00000   0.00000   0.00000   2.06581
    A1        1.27218   0.00000   0.00000   0.00000   0.00000   1.27218
    A2        1.80557   0.00000   0.00000   0.00000   0.00000   1.80557
    A3        1.68377   0.00000   0.00000   0.00000   0.00000   1.68377
    A4        2.67657   0.00000   0.00000   0.00000   0.00000   2.67657
    A5        1.56001   0.00000   0.00000   0.00000   0.00000   1.56001
    A6        2.03509   0.00000   0.00000   0.00000   0.00000   2.03509
    A7        2.06302   0.00000   0.00000   0.00000   0.00000   2.06302
    A8        1.59235   0.00000   0.00000   0.00000   0.00000   1.59235
    A9        1.62450   0.00000   0.00000   0.00000   0.00000   1.62450
   A10        1.83230   0.00000   0.00000   0.00000   0.00000   1.83230
   A11        1.35300   0.00000   0.00000   0.00000   0.00000   1.35300
   A12        1.53187   0.00000   0.00000   0.00000   0.00000   1.53187
    D1        0.06199   0.00000   0.00000   0.00000   0.00000   0.06199
    D2        0.87997   0.00000   0.00000   0.00000   0.00000   0.87997
    D3        0.39033   0.00000   0.00000   0.00000   0.00000   0.39033
    D4        1.65377   0.00000   0.00000   0.00000   0.00000   1.65377
    D5        3.64342   0.00000   0.00000   0.00001   0.00001   3.64343
    D6       -0.39763   0.00000   0.00000   0.00002   0.00002  -0.39761
    D7       -0.57409   0.00000   0.00000   0.00001   0.00001  -0.57408
    D8        1.04486   0.00000   0.00000   0.00001   0.00001   1.04487
    D9        0.48572   0.00000   0.00000   0.00000   0.00000   0.48572
   D10        3.18676   0.00000   0.00000   0.00000   0.00000   3.18676
   D11        2.54086   0.00000   0.00000   0.00000   0.00000   2.54086
         Item               Value     Threshold  Converged?
 Maximum Force            0.000002     0.000015     YES
 RMS     Force            0.000001     0.000010     YES
 Maximum Displacement     0.000018     0.000060     YES
 RMS     Displacement     0.000005     0.000040     YES
 Predicted change in Energy=-4.501241D-12
 Optimization completed.
    -- Stationary point found.
                       ----------------------------
                       !   Optimized Parameters   !
                       ! (Angstroms and Degrees)  !
 ----------------------                            ----------------------
 !      Name          Value   Derivative information (Atomic Units)     !
 ------------------------------------------------------------------------
 !       B1          2.118    -DE/DX =    0.0                           !
 !       B2          3.036    -DE/DX =    0.0                           !
 !       B3          3.4592   -DE/DX =    0.0                           !
 !       B4          2.1664   -DE/DX =    0.0                           !
 !       B5          2.3872   -DE/DX =    0.0                           !
 !       B6          1.0832   -DE/DX =    0.0                           !
 !       B7          0.9706   -DE/DX =    0.0                           !
 !       B8          0.9702   -DE/DX =    0.0                           !
 !       B9          1.0832   -DE/DX =    0.0                           !
 !       B10         2.5859   -DE/DX =    0.0                           !
 !       B11         1.469    -DE/DX =    0.0                           !
 !       B12         1.4839   -DE/DX =    0.0                           !
 !       B13         1.0932   -DE/DX =    0.0                           !
 !       A1         72.8903   -DE/DX =    0.0                           !
 !       A2        103.4515   -DE/DX =    0.0                           !
 !       A3         96.4727   -DE/DX =    0.0                           !
 !       A4        153.3559   -DE/DX =    0.0                           !
 !       A5         89.3821   -DE/DX =    0.0                           !
 !       A6        116.6018   -DE/DX =    0.0                           !
 !       A7        118.2024   -DE/DX =    0.0                           !
 !       A8         91.2347   -DE/DX =    0.0                           !
 !       A9         93.0769   -DE/DX =    0.0                           !
 !       A10       104.9831   -DE/DX =    0.0                           !
 !       A11        77.5214   -DE/DX =    0.0                           !
 !       A12        87.7699   -DE/DX =    0.0                           !
 !       D1          3.5518   -DE/DX =    0.0                           !
 !       D2         50.4185   -DE/DX =    0.0                           !
 !       D3         22.3641   -DE/DX =    0.0                           !
 !       D4         94.7539   -DE/DX =    0.0                           !
 !       D5        208.7525   -DE/DX =    0.0                           !
 !       D6        -22.7824   -DE/DX =    0.0                           !
 !       D7        -32.893    -DE/DX =    0.0                           !
 !       D8         59.866    -DE/DX =    0.0                           !
 !       D9         27.8299   -DE/DX =    0.0                           !
 !       D10       182.5881   -DE/DX =    0.0                           !
 !       D11       145.5803   -DE/DX =    0.0                           !
 ------------------------------------------------------------------------
 GradGradGradGradGradGradGradGradGradGradGradGradGradGradGradGradGradGrad

 1\1\GINC-C61N05\Freq\RB3LYP\6-31++G(d,p)\C3H9O2(1+)\ROOT\26-Apr-2018\1
 \\#N Geom=AllCheck Guess=TCheck SCRF=Check GenChk RB3LYP/6-31++G(d,p) 
 Freq\\H3O-BACK-TERM\\1,1\C\O,1,B1\H,1,B2,2,A1\H,1,B3,2,A2,3,D1,0\H,1,B
 4,2,A3,3,D2,0\H,1,B5,2,A4,5,D3,0\H,1,B6,2,A5,5,D4,0\H,2,B7,1,A6,7,D5,0
 \H,2,B8,1,A7,7,D6,0\H,1,B9,2,A8,8,D7,0\C,1,B10,2,A9,8,D8,0\C,1,B11,2,A
 10,11,D9,0\O,12,B12,1,A11,2,D10,0\H,11,B13,1,A12,12,D11,0\\B1=2.118004
 35\B2=3.03601581\B3=3.45923243\B4=2.16642604\B5=2.38722116\B6=1.083215
 97\B7=0.97064418\B8=0.9702136\B9=1.08323061\B10=2.58593769\B11=1.46902
 382\B12=1.48394644\B13=1.09318111\A1=72.89033643\A2=103.45145366\A3=96
 .47265862\A4=153.3559122\A5=89.38207903\A6=116.60179501\A7=118.2024002
 9\A8=91.23465896\A9=93.07691673\A10=104.98306166\A11=77.52136443\A12=8
 7.76989132\D1=3.55180732\D2=50.41852514\D3=22.36408666\D4=94.75385809\
 D5=208.75251989\D6=-22.78243303\D7=-32.89301452\D8=59.8660484\D9=27.82
 988865\D10=182.58810514\D11=145.58027972\\Version=EM64L-G09RevB.01\Sta
 te=1-A\HF=-269.8870112\RMSD=9.554e-09\RMSF=2.999e-04\ZeroPoint=0.12181
 5\Thermal=0.1290911\Dipole=-1.0446576,-0.1368677,0.6651574\DipoleDeriv
 =0.211267,-0.018443,-0.1986147,-0.053566,0.2113834,0.1633621,-0.473492
 ,0.2136062,1.9415877,-0.4972308,0.0179259,0.0616662,0.0252279,-0.47657
 22,-0.0238762,0.1167934,-0.0084561,-1.0722473,0.0823605,-0.0141112,0.0
 044369,-0.0280341,0.0858078,0.0378968,-0.0247456,0.0280788,-0.0208517,
 0.0378603,0.0069507,0.0179281,0.0076899,0.0618432,-0.0582274,0.0593975
 ,-0.0406681,0.0512479,0.0274159,-0.0282514,-0.0144482,-0.0130521,-0.02
 7649,0.0119799,-0.034226,-0.0128356,0.0508394,0.2714872,-0.001721,0.11
 1562,-0.0219426,0.2701513,0.1259833,0.0128964,0.0503414,0.3690116,0.06
 62608,-0.0051614,0.0171497,-0.0104059,0.0826125,-0.0101329,0.0247361,-
 0.019258,0.0064312,0.3309713,-0.0027648,0.0649167,-0.0229748,0.3172007
 ,0.0657582,0.0349364,-0.0092482,0.2647074,0.3399669,-0.0083157,-0.0814
 752,0.013926,0.3493889,-0.0776144,0.0157558,-0.0448888,0.2535064,0.096
 949,-0.0314418,0.0170961,-0.0069325,0.1150991,-0.0159668,0.0253033,-0.
 004894,0.0106839,-0.0968987,-0.0358794,-0.0492749,-0.0240162,0.0071143
 ,-0.0242333,-0.0171609,-0.008666,0.0219424,0.6312703,0.0040916,-0.0404
 894,0.0217816,0.2724166,0.0878578,0.3283896,-0.0232253,0.3779148,-0.54
 59171,0.0562854,0.1085429,0.0963531,-0.2518565,-0.2907388,-0.0620434,-
 0.138742,-1.3502905,0.0442374,0.0608361,-0.0189963,0.0159458,-0.01694,
 0.0079517,-0.0065405,0.0188558,0.0955168\Polar=46.5998997,0.3843073,38
 .8386608,-3.8719498,3.555007,56.9567807\PG=C01 [X(C3H9O2)]\NImag=1\\0.
 63745751,0.04236771,0.69273105,-0.03930194,0.01075095,0.02904274,-0.01
 999746,-0.00527146,-0.00631911,0.50225394,-0.00738761,-0.01650596,0.00
 615080,0.24947391,0.38434434,-0.00615960,0.00841132,0.02241634,-0.1295
 5672,0.15437008,0.29867189,0.00130529,0.00078152,-0.00227373,0.0003808
 1,0.00023137,0.00055422,0.07455665,0.00059055,0.00045358,-0.00037517,-
 0.00015698,-0.00020086,0.00022252,-0.01099136,0.05336861,-0.00053068,-
 0.00026932,-0.00042056,0.00036753,0.00009403,-0.00005097,0.08338167,-0
 .04235946,0.30915559,-0.00332146,-0.00459491,0.00047387,0.00020883,0.0
 0008827,0.00001511,0.00883596,-0.00413055,-0.00657636,0.20104848,-0.00
 255874,-0.00222367,-0.00104996,0.00011033,0.00012883,0.00009457,-0.004
 07938,0.00084657,0.00337115,-0.07105983,0.08463338,-0.00260971,-0.0010
 6361,0.00024274,0.00031617,0.00011042,-0.00000831,0.02205137,-0.010636
 73,-0.01691183,-0.12962247,0.06479992,0.15706659,-0.00264005,0.0284768
 1,-0.00254767,-0.00002340,-0.00033382,0.00038443,0.00082675,0.00068176
 ,-0.00026926,0.00094762,0.00059363,0.00045417,0.06140423,0.00008975,-0
 .00904472,0.00105807,0.00002679,0.00033165,-0.00023192,-0.00011422,0.0
 0026871,-0.00023967,-0.00005790,0.00070838,0.00020013,-0.01979825,0.34
 363755,-0.00017814,-0.01989706,-0.00047365,-0.00008421,0.00056267,0.00
 055457,0.00042397,0.00034839,0.00049212,-0.00042255,0.00051202,0.00016
 908,0.00702436,-0.03413057,0.05672285,0.00790542,0.00854246,-0.0056230
 3,-0.00104128,-0.00043343,0.00290655,-0.00148827,-0.00058259,-0.000106
 48,-0.00004026,0.00000475,0.00002429,0.00153826,0.00054221,0.00064475,
 0.09182542,0.00200765,-0.00406368,-0.00276115,-0.00030410,0.00020494,0
 .00162834,0.00067845,0.00064578,0.00026421,0.00010472,0.00010613,-0.00
 014205,0.00126111,0.00103504,0.00146600,0.14936539,0.33730098,-0.00755
 812,-0.00520564,-0.00679903,0.00103323,0.00062551,0.00012737,-0.000532
 18,-0.00052853,0.00040481,0.00025538,0.00002610,0.00027865,-0.00065201
 ,0.00080361,0.00263467,0.09189175,0.16494185,0.13373962,-0.26006526,-0
 .14681684,0.00892205,0.00151783,0.00155577,0.00109289,0.00006686,0.000
 02672,-0.00007760,-0.00098933,-0.00074740,-0.00061006,0.00106188,-0.00
 000249,-0.00044580,-0.00027472,0.00007395,0.00136102,0.26532418,-0.149
 00656,-0.16359708,-0.00095863,0.00138650,0.00043501,0.00100819,-0.0002
 1364,-0.00001220,0.00004428,0.00068658,0.00064597,0.00008808,-0.000233
 63,0.00081945,0.00104208,-0.00000640,0.00105542,-0.00032980,0.15233580
 ,0.15818416,-0.00398352,0.00213650,-0.03151095,-0.00580654,-0.00610838
 ,-0.00954677,-0.00004883,0.00000914,0.00002616,-0.00020623,0.00017622,
 0.00018877,0.00034757,0.00009846,0.00006197,0.00014050,0.00051785,0.00
 082268,-0.00840057,0.00136120,0.04208577,-0.00010976,0.00009320,-0.006
 50536,-0.10681958,-0.13989952,-0.04859586,-0.00066832,0.00040000,0.000
 01374,-0.00022260,-0.00015926,-0.00028886,-0.00007148,-0.00006164,-0.0
 0010491,-0.00024349,-0.00010168,-0.00005536,-0.00010808,0.00006245,0.0
 0021038,0.12066661,0.00301843,0.00134363,-0.00786365,-0.17873266,-0.32
 914025,-0.16627198,0.00020521,0.00013070,-0.00002675,-0.00001144,-0.00
 015124,0.00008312,-0.00007771,-0.00006053,-0.00009939,-0.00016298,-0.0
 0015872,-0.00011692,-0.00009155,-0.00023060,0.00141545,0.17319407,0.33
 367681,-0.00295181,-0.00639952,0.00604534,-0.08146601,-0.18977102,-0.1
 3211663,0.00044745,-0.00018016,0.00019074,0.00008055,0.00017362,0.0001
 4503,-0.00003434,0.00006999,0.00023451,-0.00001866,0.00008912,0.000103
 71,0.00054569,0.00050278,-0.00214993,0.07110948,0.17639947,0.12300477,
 0.00142362,0.00253736,0.00987217,-0.38175480,-0.10420408,0.18169086,0.
 00002762,0.00000763,0.00006530,0.00002557,-0.00000949,-0.00000200,0.00
 006189,0.00000915,0.00005843,0.00046667,0.00016260,-0.00005970,0.00046
 969,-0.00020921,-0.00065373,-0.01409823,0.00329686,0.01235516,0.393694
 90,0.00148761,-0.00114026,0.00397549,-0.06583906,-0.04392454,0.0072905
 4,-0.00012644,0.00002030,-0.00002243,0.00000419,0.00003542,-0.00006002
 ,0.00012988,-0.00002346,-0.00007653,0.00013233,0.00020907,-0.00003901,
 -0.00009903,0.00054053,-0.00088708,-0.03409592,-0.00618979,0.01832528,
 0.09936875,0.05042782,0.00665858,0.00137086,0.00647340,0.21212519,0.03
 420586,-0.14242062,0.00015373,-0.00002843,-0.00002994,-0.00002326,-0.0
 0001139,0.00002467,0.00007718,-0.00006581,0.00005977,0.00050525,0.0001
 1625,-0.00040578,-0.00030236,-0.00067122,-0.00103152,-0.01939254,-0.00
 728851,0.00950913,-0.19776583,-0.02744965,0.13339010,-0.05985810,0.028
 98402,0.00476100,-0.00063699,-0.00005469,-0.00006930,-0.00020682,-0.00
 011777,-0.00004378,0.00024049,-0.00041550,0.00008713,-0.00338395,0.000
 90191,0.00308303,0.00014556,-0.00011353,-0.00028261,0.00693192,-0.0220
 8234,0.00005221,0.00033660,0.00016512,-0.00054994,0.00017017,-0.000482
 50,0.00022432,0.05520411,0.03033265,-0.36529523,0.00371074,-0.00005128
 ,0.00234050,-0.00301164,-0.00001513,0.00004213,-0.00005057,-0.00012958
 ,0.00003737,0.00001054,0.00057731,0.00093194,-0.00067789,-0.00052131,0
 .00011547,0.00020623,0.00470269,-0.00710841,0.00049256,0.00023030,0.00
 048679,0.00054947,-0.00030054,0.00002975,-0.00012162,-0.03444036,0.370
 77069,-0.00693906,0.01230903,-0.02712735,0.00152071,0.00504831,-0.0110
 8359,0.00013670,0.00018971,-0.00001229,-0.00004925,-0.00006907,-0.0000
 7503,-0.00045595,0.00009728,0.00026254,0.00263871,-0.00049346,-0.00075
 789,-0.00016765,-0.00002881,0.00642957,-0.00005471,0.00120900,-0.00101
 634,-0.00139196,0.00064434,-0.00136499,-0.00422363,-0.00433756,0.04115
 104,-0.02717259,-0.01223257,-0.00184329,-0.00015591,-0.00011469,0.0000
 6688,-0.06994794,0.01028978,-0.07583648,-0.18439276,0.06832059,0.12181
 526,0.00417336,0.00078499,0.00109491,-0.00088070,0.00026158,-0.0000967
 3,-0.00154781,0.00151869,-0.00042481,0.00037054,-0.00018281,-0.0002337
 6,-0.00005487,0.00005566,-0.00023160,0.00204036,-0.00077780,0.00048265
 ,0.51685275,0.00993988,0.01017156,0.00207478,0.00026537,0.00000747,-0.
 00022492,0.01018729,-0.05402635,0.03945352,0.06700848,-0.08328570,-0.0
 5922215,-0.02812208,-0.01214748,-0.00678867,0.00149596,-0.00095782,0.0
 0131407,0.00314814,-0.00135401,0.00008536,-0.00024090,0.00025605,-0.00
 005432,-0.00000542,-0.00008053,0.00004691,0.00093823,0.00120520,-0.000
 42628,-0.03891495,0.57587729,0.01604457,0.01363401,-0.00079045,-0.0006
 6793,-0.00004082,0.00076366,-0.07444407,0.04097866,-0.28637087,0.11869
 529,-0.06089546,-0.14870214,0.00368674,0.00112686,0.00348063,-0.005929
 75,0.00205454,-0.00348436,0.00327866,-0.00202739,0.00022140,0.00021879
 ,-0.00020323,0.00018182,0.00000155,0.00004867,0.00033861,-0.00122775,-
 0.00019504,0.00019589,-0.01675324,-0.01149981,0.57405242,-0.25800115,0
 .07657228,0.07803550,0.00341397,-0.00221113,-0.01005748,-0.00642966,-0
 .00113892,-0.00099357,-0.02411201,-0.01378510,-0.00780535,-0.05495155,
 0.01932045,0.00130927,-0.00939200,0.00657294,-0.00641931,-0.01586667,0
 .01360382,0.00276757,0.00238210,0.00091049,-0.00134473,-0.00144921,-0.
 00088155,-0.00209152,0.00038547,0.00056531,0.00415324,-0.17677726,-0.0
 6494417,0.00110954,0.58011774,0.07981758,-0.12884359,-0.03037380,-0.00
 338928,-0.00068446,0.00327800,0.00703915,0.00174069,0.00069497,0.01099
 208,0.00668593,0.00310371,0.01172937,-0.32903455,0.02267375,-0.0163765
 1,0.01092337,-0.02288503,-0.01593167,0.01125805,-0.00425580,0.00029703
 ,-0.00041810,-0.00032730,0.00055321,0.00047618,0.00094015,0.02846604,-
 0.00614527,0.00119727,-0.05856553,-0.13258579,-0.00643238,-0.02605893,
 0.67272217,0.03533381,-0.01550615,0.02125505,0.00216178,-0.00200432,-0
 .01143500,-0.02597482,-0.01542972,-0.00589125,0.01707315,0.01351105,0.
 00275162,-0.00154694,0.03132485,-0.05161184,0.00285006,0.01203510,-0.0
 1454712,-0.00224171,-0.00090176,-0.00246975,0.00147275,0.00023185,-0.0
 0203960,-0.00093630,-0.00039879,-0.00147055,-0.00013309,0.00155766,-0.
 00121451,-0.01121207,-0.01141576,-0.07112938,-0.00064950,-0.00853225,0
 .28712754,-0.01890046,-0.01787052,-0.03770035,0.00258859,0.00317280,0.
 00772249,-0.00533070,-0.00454208,0.00054884,0.00340185,0.00174470,0.00
 169807,-0.00412210,0.00067111,-0.01076123,-0.08883953,-0.16001102,-0.0
 7909173,0.00328133,0.00195109,0.01589729,-0.00135122,-0.00151306,0.001
 88164,0.00103300,0.00034474,0.00004713,-0.00083254,-0.00073260,0.00439
 038,-0.00838593,0.00381122,-0.03797185,-0.04122619,0.01441016,-0.02189
 210,0.15718754,-0.01164798,-0.01481789,0.01566567,0.00241486,0.0025258
 5,-0.00644528,-0.00409424,-0.00151479,-0.00081307,0.00045326,0.0005181
 0,0.00055542,0.00738618,0.00210911,0.03542782,-0.14229631,-0.34663998,
 -0.13875339,0.00185408,-0.00089462,0.00485286,0.00038850,0.00048721,0.
 00043329,-0.00117167,-0.00036888,-0.00105255,-0.00093133,0.00228022,-0
 .01529500,-0.00236295,0.00669294,-0.01840164,-0.00994554,-0.08957920,-
 0.00692565,0.15831321,0.43827291,0.01228936,-0.00099321,-0.01968296,0.
 00642189,-0.00305975,-0.01569116,-0.00133489,-0.00203524,0.00181040,-0
 .00076538,-0.00071166,0.00117743,-0.00516665,0.00052893,-0.01343376,-0
 .09015140,-0.17979050,-0.11211144,-0.00293567,0.00097493,-0.00306730,0
 .00170977,0.00229341,-0.00176602,-0.00324273,-0.00131737,-0.00301449,-
 0.00193544,0.00168985,-0.00551716,-0.01228450,0.00306374,-0.01472993,-
 0.05759581,0.04799829,-0.14739585,0.15408598,0.13148119,0.33304379,0.0
 0197447,-0.00156905,0.00004990,0.00006544,0.00011685,0.00000554,-0.001
 92823,0.00966380,0.00005714,-0.00163038,0.02204071,-0.00550802,-0.0048
 2145,-0.00231185,-0.00164187,0.00031891,0.00004194,0.00020636,0.000198
 18,0.00020685,0.00010869,-0.00006310,-0.00001798,0.00017928,-0.0000160
 4,0.00000133,0.00001574,-0.00053629,0.00056034,-0.00004018,-0.05412123
 ,0.03543294,-0.00604053,0.00190641,-0.03298270,0.00569498,0.00149636,0
 .00163992,0.00090548,0.05715695,0.00094909,0.00083224,-0.00000412,0.00
 006706,0.00013746,-0.00011782,0.00051143,-0.00176288,-0.00014088,0.000
 64666,-0.00868548,0.00217322,-0.00227057,0.00046890,-0.00036261,0.0002
 9642,0.00022400,-0.00005906,-0.00000818,0.00025833,0.00010566,-0.00010
 663,-0.00003197,0.00018931,-0.00003516,-0.00001162,0.00000916,-0.00081
 732,0.00030883,-0.00004476,0.03192002,-0.30977283,0.04185304,0.0014200
 3,-0.01651543,0.00245389,0.00025024,0.00092903,-0.00012260,-0.03282310
 ,0.33362140,-0.00011373,0.00072187,0.00132934,-0.00004599,-0.00018339,
 -0.00018079,-0.00254061,0.02982504,-0.00239212,0.00107217,-0.01992712,
 0.00365273,-0.00130162,-0.00064020,0.00084653,0.00022746,0.00007389,-0
 .00000587,-0.00001889,-0.00010393,-0.00006009,0.00026271,0.00023813,-0
 .00032653,0.00000879,-0.00003344,-0.00005778,0.00025785,0.00017729,0.0
 0013011,-0.00454324,0.04359353,-0.05402729,-0.00041784,-0.00707957,-0.
 00192936,0.00114545,-0.00072967,0.00037846,0.00600748,-0.04593242,0.05
 264266\\0.00027265,-0.00183457,0.00037874,0.00001035,-0.00033110,0.000
 00025,-0.00000002,-0.00028877,0.00000021,0.00000011,-0.00000009,-0.000
 00011,0.00000005,0.00000013,-0.00000007,0.00000012,-0.00000041,0.00000
 024,0.00000003,-0.00000012,-0.00000001,0.00000006,-0.00000001,-0.00000
 006,-0.00000013,-0.00000007,-0.00000003,0.00000002,-0.00000003,0.00000
 015,-0.00000008,0.00000019,-0.00000006,-0.00000013,-0.00000054,-0.0000
 0022,0.00000009,0.00000051,0.,-0.00000005,0.00000003,-0.00000004\\\@


 PERICLES, SOPHOCLES,
 PELOPONESIAN WAR,
 FRENCH VERBS, LATIN VERBS
 H2SO4.
 Job cpu time:  0 days  0 hours  9 minutes 20.3 seconds.
 File lengths (MBytes):  RWF=   1312 Int=      0 D2E=      0 Chk=     32 Scr=     32
 Normal termination of Gaussian 09 at Thu Apr 26 21:54:54 2018.
