 Entering Gaussian System, Link 0=g09
 Input=OH-mid-field-2.gjf
 Output=OH-mid-field-2.log
 Initial command:
 /share/home/zxchen/g09/l1.exe /scratch/zxchen/Gau-15052.inp -scrdir=/scratch/zxchen/
 Entering Link 1 = /share/home/zxchen/g09/l1.exe PID=     15053.
  
 Copyright (c) 1988,1990,1992,1993,1995,1998,2003,2009,2010,
            Gaussian, Inc.  All Rights Reserved.
  
 This is part of the Gaussian(R) 09 program.  It is based on
 the Gaussian(R) 03 system (copyright 2003, Gaussian, Inc.),
 the Gaussian(R) 98 system (copyright 1998, Gaussian, Inc.),
 the Gaussian(R) 94 system (copyright 1995, Gaussian, Inc.),
 the Gaussian 92(TM) system (copyright 1992, Gaussian, Inc.),
 the Gaussian 90(TM) system (copyright 1990, Gaussian, Inc.),
 the Gaussian 88(TM) system (copyright 1988, Gaussian, Inc.),
 the Gaussian 86(TM) system (copyright 1986, Carnegie Mellon
 University), and the Gaussian 82(TM) system (copyright 1983,
 Carnegie Mellon University). Gaussian is a federally registered
 trademark of Gaussian, Inc.
  
 This software contains proprietary and confidential information,
 including trade secrets, belonging to Gaussian, Inc.
  
 This software is provided under written license and may be
 used, copied, transmitted, or stored only in accord with that
 written license.
  
 The following legend is applicable only to US Government
 contracts under FAR:
  
                    RESTRICTED RIGHTS LEGEND
  
 Use, reproduction and disclosure by the US Government is
 subject to restrictions as set forth in subparagraphs (a)
 and (c) of the Commercial Computer Software - Restricted
 Rights clause in FAR 52.227-19.
  
 Gaussian, Inc.
 340 Quinnipiac St., Bldg. 40, Wallingford CT 06492
  
  
 ---------------------------------------------------------------
 Warning -- This program may not be used in any manner that
 competes with the business of Gaussian, Inc. or will provide
 assistance to any competitor of Gaussian, Inc.  The licensee
 of this program is prohibited from giving any competitor of
 Gaussian, Inc. access to this program.  By using this program,
 the user acknowledges that Gaussian, Inc. is engaged in the
 business of creating and licensing software in the field of
 computational chemistry and represents and warrants to the
 licensee that it is not a competitor of Gaussian, Inc. and that
 it will not use this program in any manner prohibited above.
 ---------------------------------------------------------------
  

 Cite this work as:
 Gaussian 09, Revision B.01,
 M. J. Frisch, G. W. Trucks, H. B. Schlegel, G. E. Scuseria, 
 M. A. Robb, J. R. Cheeseman, G. Scalmani, V. Barone, B. Mennucci, 
 G. A. Petersson, H. Nakatsuji, M. Caricato, X. Li, H. P. Hratchian, 
 A. F. Izmaylov, J. Bloino, G. Zheng, J. L. Sonnenberg, M. Hada, 
 M. Ehara, K. Toyota, R. Fukuda, J. Hasegawa, M. Ishida, T. Nakajima, 
 Y. Honda, O. Kitao, H. Nakai, T. Vreven, J. A. Montgomery, Jr., 
 J. E. Peralta, F. Ogliaro, M. Bearpark, J. J. Heyd, E. Brothers, 
 K. N. Kudin, V. N. Staroverov, T. Keith, R. Kobayashi, J. Normand, 
 K. Raghavachari, A. Rendell, J. C. Burant, S. S. Iyengar, J. Tomasi, 
 M. Cossi, N. Rega, J. M. Millam, M. Klene, J. E. Knox, J. B. Cross, 
 V. Bakken, C. Adamo, J. Jaramillo, R. Gomperts, R. E. Stratmann, 
 O. Yazyev, A. J. Austin, R. Cammi, C. Pomelli, J. W. Ochterski, 
 R. L. Martin, K. Morokuma, V. G. Zakrzewski, G. A. Voth, 
 P. Salvador, J. J. Dannenberg, S. Dapprich, A. D. Daniels, 
 O. Farkas, J. B. Foresman, J. V. Ortiz, J. Cioslowski, 
 and D. J. Fox, Gaussian, Inc., Wallingford CT, 2010.
 
 ******************************************
 Gaussian 09:  EM64L-G09RevB.01 12-Aug-2010
                13-Mar-2018 
 ******************************************
 %chk=OH-mid-10.chk
 %nprocshared=24
 Will use up to   24 processors via shared memory.
 ----------------------------------------------------------------------
 # field=z-25 nosymm opt=(ts,noeigen,maxcycle=300,calcall,z-matrix) fre
 q rb3lyp/6-31++g(d,p)
 ----------------------------------------------------------------------
 1/5=1,6=300,10=4,11=1,14=-1,18=40,26=3,38=1/1,3;
 2/12=2,15=1,17=6,18=5,29=3,40=1/2;
 3/5=1,6=6,7=1111,11=2,14=3,15=-25,16=1,25=1,30=1,71=2,74=-5,116=1/1,2,3;
 4//1;
 5/5=2,38=5/2;
 8/6=4,10=90,11=11/1;
 11/6=1,8=1,9=11,15=111,16=1,31=1/1,2,10;
 10/6=1,31=1/2;
 6/7=2,8=2,9=2,10=2,18=1,28=1/1;
 7/10=1,25=1,30=1/1,2,3,16;
 1/5=1,6=300,10=4,11=1,14=-1,18=40/3(3);
 2/15=1,29=3/2;
 7/8=1,9=1,25=1,30=1,44=-1/16;
 99//99;
 2/15=1,29=3/2;
 3/5=1,6=6,7=1111,11=2,14=3,15=-25,16=1,25=1,30=1,71=2,74=-5,116=1/1,2,3;
 4/5=5,16=3/1;
 5/5=2,38=5/2;
 8/6=4,10=90,11=11/1;
 11/6=1,8=1,9=11,15=111,16=1,31=1/1,2,10;
 10/6=1,31=1/2;
 7/10=1,25=1,30=1/1,2,3,16;
 1/5=1,6=300,10=4,11=1,14=-1,18=40/3(-8);
 2/15=1,29=3/2;
 6/7=2,8=2,9=2,10=2,18=1,19=2,28=1/1;
 7/8=1,9=1,25=1,30=1,44=-1/16;
 99//99;
 -----------
 OH-BACK-MID
 -----------
 Symbolic Z-matrix:
 Charge = -1 Multiplicity = 1
 C
 O                    1    B1
 C                    1    B2       2    A1
 C                    1    B3       3    A2       2    D1       0
 H                    2    B4       1    A3       3    D2       0
 H                    1    B5       3    A4       4    D3       0
 H                    3    B6       1    A5       4    D4       0
 H                    3    B7       1    A6       4    D5       0
 H                    4    B8       1    A7       3    D6       0
 H                    4    B9       1    A8       3    D7       0
 H                    4    B10      1    A9       3    D8       0
 O                    3    B11      1    A10      4    D9       0
       Variables:
  B1                    2.24655                  
  B2                    1.48661                  
  B3                    1.49984                  
  B4                    0.9691                   
  B5                    1.08178                  
  B6                    1.11079                  
  B7                    1.11245                  
  B8                    1.09509                  
  B9                    1.09667                  
  B10                   1.09504                  
  B11                   1.38309                  
  A1                  114.34824                  
  A2                  119.6899                   
  A3                  102.95602                  
  A4                  114.80582                  
  A5                  112.30009                  
  A6                  111.92739                  
  A7                  109.89994                  
  A8                  112.273                    
  A9                  107.71057                  
  A10                  94.45806                  
  D1                 -110.07747                  
  D2                   33.57794                  
  D3                 -149.99309                  
  D4                 -162.52135                  
  D5                  -41.98353                  
  D6                  -12.63974                  
  D7                 -133.56409                  
  D8                  107.25134                  
  D9                   77.57658                  
 

 GradGradGradGradGradGradGradGradGradGradGradGradGradGradGradGradGradGrad
 Berny optimization.
 Initialization pass.
                       ----------------------------
                       !    Initial Parameters    !
                       ! (Angstroms and Degrees)  !
 ----------------------                            ----------------------
 !      Name          Value   Derivative information (Atomic Units)     !
 ------------------------------------------------------------------------
 !       B1          2.2465   calculate D2E/DX2 analytically            !
 !       B2          1.4866   calculate D2E/DX2 analytically            !
 !       B3          1.4998   calculate D2E/DX2 analytically            !
 !       B4          0.9691   calculate D2E/DX2 analytically            !
 !       B5          1.0818   calculate D2E/DX2 analytically            !
 !       B6          1.1108   calculate D2E/DX2 analytically            !
 !       B7          1.1124   calculate D2E/DX2 analytically            !
 !       B8          1.0951   calculate D2E/DX2 analytically            !
 !       B9          1.0967   calculate D2E/DX2 analytically            !
 !       B10         1.095    calculate D2E/DX2 analytically            !
 !       B11         1.3831   calculate D2E/DX2 analytically            !
 !       A1        114.3482   calculate D2E/DX2 analytically            !
 !       A2        119.6899   calculate D2E/DX2 analytically            !
 !       A3        102.956    calculate D2E/DX2 analytically            !
 !       A4        114.8058   calculate D2E/DX2 analytically            !
 !       A5        112.3001   calculate D2E/DX2 analytically            !
 !       A6        111.9274   calculate D2E/DX2 analytically            !
 !       A7        109.8999   calculate D2E/DX2 analytically            !
 !       A8        112.273    calculate D2E/DX2 analytically            !
 !       A9        107.7106   calculate D2E/DX2 analytically            !
 !       A10        94.4581   calculate D2E/DX2 analytically            !
 !       D1       -110.0775   calculate D2E/DX2 analytically            !
 !       D2         33.5779   calculate D2E/DX2 analytically            !
 !       D3       -149.9931   calculate D2E/DX2 analytically            !
 !       D4       -162.5213   calculate D2E/DX2 analytically            !
 !       D5        -41.9835   calculate D2E/DX2 analytically            !
 !       D6        -12.6397   calculate D2E/DX2 analytically            !
 !       D7       -133.5641   calculate D2E/DX2 analytically            !
 !       D8        107.2513   calculate D2E/DX2 analytically            !
 !       D9         77.5766   calculate D2E/DX2 analytically            !
 ------------------------------------------------------------------------
 Trust Radius=3.00D-01 FncErr=1.00D-07 GrdErr=1.00D-06
 Number of steps in this run=    100 maximum allowed number of steps=    100.
 Search for a saddle point of order  1.
 GradGradGradGradGradGradGradGradGradGradGradGradGradGradGradGradGradGrad

 ---------------------------------------------------------------------------------------------------
                            Z-MATRIX (ANGSTROMS AND DEGREES)
   CD    Cent   Atom    N1       Length/X        N2       Alpha/Y        N3        Beta/Z          J
 ---------------------------------------------------------------------------------------------------
      1      1  C 
      2      2  O        1   2.246546(     1)
      3      3  C        1   1.486608(     2)      2  114.348(    12)
      4      4  C        1   1.499840(     3)      3  119.690(    13)      2 -110.077(    22)      0
      5      5  H        2   0.969103(     4)      1  102.956(    14)      3   33.578(    23)      0
      6      6  H        1   1.081775(     5)      3  114.806(    15)      4 -149.993(    24)      0
      7      7  H        3   1.110794(     6)      1  112.300(    16)      4 -162.521(    25)      0
      8      8  H        3   1.112446(     7)      1  111.927(    17)      4  -41.984(    26)      0
      9      9  H        4   1.095088(     8)      1  109.900(    18)      3  -12.640(    27)      0
     10     10  H        4   1.096671(     9)      1  112.273(    19)      3 -133.564(    28)      0
     11     11  H        4   1.095041(    10)      1  107.711(    20)      3  107.251(    29)      0
     12     12  O        3   1.383094(    11)      1   94.458(    21)      4   77.577(    30)      0
 ---------------------------------------------------------------------------------------------------
                         Z-Matrix orientation:                         
 ---------------------------------------------------------------------
 Center     Atomic      Atomic             Coordinates (Angstroms)
 Number     Number       Type             X           Y           Z
 ---------------------------------------------------------------------
      1          6           0        0.000000    0.000000    0.000000
      2          8           0        0.000000    0.000000    2.246546
      3          6           0        1.354384    0.000000   -0.612901
      4          6           0       -0.861213   -1.223759   -0.101228
      5          1           0        0.786839    0.522338    2.463822
      6          1           0       -0.483295    0.967256    0.032850
      7          1           0        1.996660    0.814729   -0.215962
      8          1           0        1.891591   -0.957458   -0.433403
      9          1           0       -0.437721   -1.917954   -0.834690
     10          1           0       -1.889149   -0.985101   -0.399687
     11          1           0       -0.889887   -1.693637    0.887462
     12          8           0        0.888895    0.183659   -1.902296
 ---------------------------------------------------------------------
                    Distance matrix (angstroms):
                    1          2          3          4          5
     1  C    0.000000
     2  O    2.246546   0.000000
     3  C    1.486608   3.163984   0.000000
     4  C    1.499840   2.784119   2.582298   0.000000
     5  H    2.638631   0.969103   3.171935   3.513461   0.000000
     6  H    1.081775   2.463657   2.174774   2.227408   2.778636
     7  H    2.167273   3.273283   1.110794   3.512269   2.954725
     8  H    2.163950   3.417158   1.112446   2.785532   3.435722
     9  H    2.137020   3.655703   2.634270   1.095088   4.281910
    10  H    2.167731   3.397331   3.396526   1.096671   4.199163
    11  H    2.109003   2.346788   3.186887   1.095041   3.194819
    12  O    2.107746   4.246970   1.383094   2.878810   4.380423
                    6          7          8          9         10
     6  H    0.000000
     7  H    2.497068   0.000000
     8  H    3.092248   1.788566   0.000000
     9  H    3.013161   3.711683   2.551329   0.000000
    10  H    2.444425   4.286333   3.780991   1.779350   0.000000
    11  H    2.824187   3.980151   3.165954   1.794597   1.776879
    12  O    2.498343   2.114028   2.113101   2.704897   3.367694
                   11         12
    11  H    0.000000
    12  O    3.804084   0.000000
 Symmetry turned off by external request.
 Stoichiometry    C3H7O2(1-)
 Framework group  C1[X(C3H7O2)]
 Deg. of freedom    30
 Full point group                 C1      NOp   1
 Rotational constants (GHZ):      7.7484082      2.9334186      2.3175352
 Standard basis: 6-31++G(d,p) (6D, 7F)
 The following finite field(s) will be applied:
 An electric field of              0.0000  0.0000 -0.0025
 Integral buffers will be    131072 words long.
 Raffenetti 2 integral format.
 Two-electron integral symmetry is turned off.
   137 basis functions,   216 primitive gaussians,   137 cartesian basis functions
    21 alpha electrons       21 beta electrons
       nuclear repulsion energy       171.8981641395 Hartrees.
 NAtoms=   12 NActive=   12 NUniq=   12 SFac= 1.00D+00 NAtFMM=   50 NAOKFM=F Big=F
 One-electron integrals computed using PRISM.
 PrsmSu:  requested number of processors reduced to:  10 ShMem   1 Linda.
 NBasis=   137 RedAO= T  NBF=   137
 NBsUse=   137 1.00D-06 NBFU=   137
 The nuclear repulsion energy is now       171.8983076733 hartrees.
 Harris functional with IExCor=  402 diagonalized for initial guess.
 ExpMin= 3.60D-02 ExpMax= 5.48D+03 ExpMxC= 8.25D+02 IAcc=3 IRadAn=         0 AccDes= 0.00D+00
 HarFok:  IExCor=  402 AccDes= 0.00D+00 IRadAn=         0 IDoV= 1
 ScaDFX=  1.000000  1.000000  1.000000  1.000000
 FoFCou: FMM=F IPFlag=           0 FMFlag=      100000 FMFlg1=           0
         NFxFlg=           0 DoJE=T BraDBF=F KetDBF=T FulRan=T
         Omega=  0.000000  0.000000  1.000000  0.000000  0.000000 ICntrl=     500 IOpCl=  0
         NMat0=    1 NMatS0=    1 NMatT0=    0 NMatD0=    1 NMtDS0=    0 NMtDT0=    0
         I1Cent=           4 NGrid=           0.
 Symmetry not used in FoFCou.
 Requested convergence on RMS density matrix=1.00D-08 within 128 cycles.
 Requested convergence on MAX density matrix=1.00D-06.
 Requested convergence on             energy=1.00D-06.
 No special actions if energy rises.
 SCF Done:  E(RB3LYP) =  -268.938811472     A.U. after   16 cycles
             Convg  =    0.7101D-08             -V/T =  2.0100
 Range of M.O.s used for correlation:     1   137
 NBasis=   137 NAE=    21 NBE=    21 NFC=     0 NFV=     0
 NROrb=    137 NOA=    21 NOB=    21 NVA=   116 NVB=   116

 **** Warning!!: The largest alpha MO coefficient is  0.34873076D+02

 PrsmSu:  requested number of processors reduced to:  10 ShMem   1 Linda.
 PrsmSu:  requested number of processors reduced to:  18 ShMem   1 Linda.
 Symmetrizing basis deriv contribution to polar:
 IMax=3 JMax=2 DiffMx= 0.00D+00
 G2DrvN: will do     4 centers at a time, making    4 passes doing MaxLOS=2.
 Estimated number of processors is:   15
 Calling FoFCou, ICntrl=  3107 FMM=F I1Cent=   0 AccDes= 0.00D+00.
 CoulSu:  requested number of processors reduced to:  15 ShMem   1 Linda.
 Calling FoFCou, ICntrl=  3107 FMM=F I1Cent=   0 AccDes= 0.00D+00.
 CoulSu:  requested number of processors reduced to:  15 ShMem   1 Linda.
 Calling FoFCou, ICntrl=  3107 FMM=F I1Cent=   0 AccDes= 0.00D+00.
 CoulSu:  requested number of processors reduced to:  15 ShMem   1 Linda.
 Calling FoFCou, ICntrl=  3107 FMM=F I1Cent=   0 AccDes= 0.00D+00.
 CoulSu:  requested number of processors reduced to:  15 ShMem   1 Linda.
 FoFDir/FoFCou used for L=0 through L=2.
 End of G2Drv Frequency-dependent properties file   721 does not exist.
 End of G2Drv Frequency-dependent properties file   722 does not exist.
          IDoAtm=111111111111
          Differentiating once with respect to electric field.
                with respect to dipole field.
          Differentiating once with respect to nuclear coordinates.
 PrRfSu:  requested number of processors reduced to:  15 ShMem   1 Linda.
 CalDSu:  requested number of processors reduced to:  19 ShMem   1 Linda.
          There are    39 degrees of freedom in the 1st order CPHF.  IDoFFX=5.
     36 vectors produced by pass  0 Test12= 6.25D-15 2.56D-09 XBig12= 2.01D+02 1.11D+01.
 AX will form    36 AO Fock derivatives at one time.
 PrRfSu:  requested number of processors reduced to:  15 ShMem   1 Linda.
 CalDSu:  requested number of processors reduced to:  20 ShMem   1 Linda.
     36 vectors produced by pass  1 Test12= 6.25D-15 2.56D-09 XBig12= 9.18D+01 2.57D+00.
 PrRfSu:  requested number of processors reduced to:  15 ShMem   1 Linda.
 CalDSu:  requested number of processors reduced to:  20 ShMem   1 Linda.
     36 vectors produced by pass  2 Test12= 6.25D-15 2.56D-09 XBig12= 2.02D-01 6.33D-02.
 PrRfSu:  requested number of processors reduced to:  15 ShMem   1 Linda.
 CalDSu:  requested number of processors reduced to:  20 ShMem   1 Linda.
     36 vectors produced by pass  3 Test12= 6.25D-15 2.56D-09 XBig12= 1.07D-03 4.16D-03.
 PrRfSu:  requested number of processors reduced to:  15 ShMem   1 Linda.
 CalDSu:  requested number of processors reduced to:  20 ShMem   1 Linda.
     36 vectors produced by pass  4 Test12= 6.25D-15 2.56D-09 XBig12= 2.44D-06 2.64D-04.
 PrRfSu:  requested number of processors reduced to:  15 ShMem   1 Linda.
 CalDSu:  requested number of processors reduced to:  20 ShMem   1 Linda.
     29 vectors produced by pass  5 Test12= 6.25D-15 2.56D-09 XBig12= 2.77D-09 7.17D-06.
 PrRfSu:  requested number of processors reduced to:  16 ShMem   1 Linda.
 CalDSu:  requested number of processors reduced to:  21 ShMem   1 Linda.
      7 vectors produced by pass  6 Test12= 6.25D-15 2.56D-09 XBig12= 2.55D-12 2.19D-07.
 PrRfSu:  requested number of processors reduced to:  18 ShMem   1 Linda.
      3 vectors produced by pass  7 Test12= 6.25D-15 2.56D-09 XBig12= 2.17D-14 2.75D-08.
      1 vectors produced by pass  8 Test12= 6.25D-15 2.56D-09 XBig12= 1.02D-16 2.79D-09.
 Inverted reduced A of dimension   220 with in-core refinement.
 Isotropic polarizability for W=    0.000000       74.16 Bohr**3.
 End of Minotr Frequency-dependent properties file   721 does not exist.
 End of Minotr Frequency-dependent properties file   722 does not exist.

 **********************************************************************

            Population analysis using the SCF density.

 **********************************************************************

 Alpha  occ. eigenvalues --  -18.91624 -18.91207 -10.08744 -10.05790 -10.03458
 Alpha  occ. eigenvalues --   -0.77244  -0.70520  -0.60413  -0.49539  -0.40815
 Alpha  occ. eigenvalues --   -0.31207  -0.27674  -0.25931  -0.22434  -0.20653
 Alpha  occ. eigenvalues --   -0.19230  -0.18610  -0.09121  -0.05552  -0.04716
 Alpha  occ. eigenvalues --   -0.04021
 Alpha virt. eigenvalues --    0.11095   0.12201   0.12699   0.13115   0.15469
 Alpha virt. eigenvalues --    0.15946   0.16043   0.17774   0.20004   0.21557
 Alpha virt. eigenvalues --    0.23149   0.23616   0.25361   0.25524   0.26183
 Alpha virt. eigenvalues --    0.27066   0.27469   0.27915   0.29524   0.31321
 Alpha virt. eigenvalues --    0.33528   0.36007   0.37610   0.38932   0.39526
 Alpha virt. eigenvalues --    0.40547   0.40949   0.42038   0.44475   0.46086
 Alpha virt. eigenvalues --    0.46434   0.47726   0.48503   0.50368   0.52856
 Alpha virt. eigenvalues --    0.54219   0.56415   0.57559   0.78531   0.82944
 Alpha virt. eigenvalues --    0.87684   0.89307   0.90373   0.93253   0.94966
 Alpha virt. eigenvalues --    0.98144   1.03890   1.10250   1.11438   1.12163
 Alpha virt. eigenvalues --    1.16179   1.20319   1.22272   1.24677   1.27791
 Alpha virt. eigenvalues --    1.35289   1.39876   1.40890   1.46097   1.48383
 Alpha virt. eigenvalues --    1.50716   1.52401   1.56171   1.58074   1.61547
 Alpha virt. eigenvalues --    1.68835   1.78815   1.81785   1.83908   1.84959
 Alpha virt. eigenvalues --    1.89063   1.97481   2.01779   2.04353   2.06046
 Alpha virt. eigenvalues --    2.07708   2.13797   2.15002   2.18940   2.19675
 Alpha virt. eigenvalues --    2.25549   2.28907   2.29506   2.32161   2.34237
 Alpha virt. eigenvalues --    2.40208   2.49370   2.54863   2.60219   2.60611
 Alpha virt. eigenvalues --    2.65581   2.67288   2.77249   2.79192   2.80925
 Alpha virt. eigenvalues --    2.86553   2.88782   2.91457   2.92508   3.00158
 Alpha virt. eigenvalues --    3.05165   3.07891   3.09015   3.16239   3.40064
 Alpha virt. eigenvalues --    3.44859   3.55055   3.59367   3.62852   3.67186
 Alpha virt. eigenvalues --    3.68625   4.38296   4.41630   4.51602   4.71104
 Alpha virt. eigenvalues --    4.81689
          Condensed to atoms (all electrons):
              1          2          3          4          5          6
     1  C    8.051860  -0.099112  -0.441877  -1.559833   0.012301   0.429777
     2  O   -0.099112   8.678380   0.047672  -0.015524   0.176708  -0.022329
     3  C   -0.441877   0.047672   5.427181   0.134275  -0.007359  -0.021080
     4  C   -1.559833  -0.015524   0.134275   6.802081   0.008241  -0.122904
     5  H    0.012301   0.176708  -0.007359   0.008241   0.555409  -0.002747
     6  H    0.429777  -0.022329  -0.021080  -0.122904  -0.002747   0.606580
     7  H   -0.237645   0.009599   0.431656   0.154789  -0.001947  -0.080775
     8  H    0.052280   0.009292   0.385607  -0.160684   0.000231   0.058688
     9  H   -0.183249   0.003674   0.019957   0.513136  -0.000108  -0.014545
    10  H    0.034979  -0.001982  -0.006142   0.331516  -0.000039   0.007144
    11  H   -0.189859   0.021410   0.053082   0.478662  -0.007309  -0.014402
    12  O   -0.330013   0.020983   0.317862   0.129529  -0.001588  -0.002730
              7          8          9         10         11         12
     1  C   -0.237645   0.052280  -0.183249   0.034979  -0.189859  -0.330013
     2  O    0.009599   0.009292   0.003674  -0.001982   0.021410   0.020983
     3  C    0.431656   0.385607   0.019957  -0.006142   0.053082   0.317862
     4  C    0.154789  -0.160684   0.513136   0.331516   0.478662   0.129529
     5  H   -0.001947   0.000231  -0.000108  -0.000039  -0.007309  -0.001588
     6  H   -0.080775   0.058688  -0.014545   0.007144  -0.014402  -0.002730
     7  H    0.925748  -0.222857   0.017960  -0.006559   0.013096  -0.075051
     8  H   -0.222857   0.960513  -0.035034   0.010200  -0.017346  -0.103549
     9  H    0.017960  -0.035034   0.547368  -0.044760  -0.007441   0.015039
    10  H   -0.006559   0.010200  -0.044760   0.617543  -0.040313  -0.015652
    11  H    0.013096  -0.017346  -0.007441  -0.040313   0.504401   0.015594
    12  O   -0.075051  -0.103549   0.015039  -0.015652   0.015594   8.681747
 Mulliken atomic charges:
              1
     1  C    0.460391
     2  O   -0.828771
     3  C   -0.340834
     4  C   -0.693282
     5  H    0.268206
     6  H    0.179323
     7  H    0.071986
     8  H    0.062660
     9  H    0.168003
    10  H    0.114065
    11  H    0.190425
    12  O   -0.652171
 Sum of Mulliken atomic charges =  -1.00000
 Mulliken charges with hydrogens summed into heavy atoms:
              1
     1  C    0.639714
     2  O   -0.560565
     3  C   -0.206188
     4  C   -0.220789
    12  O   -0.652171
 Sum of Mulliken charges with hydrogens summed into heavy atoms =  -1.00000
 APT atomic charges:
              1
     1  C    0.882816
     2  O   -0.969074
     3  C    0.494227
     4  C    0.015771
     5  H    0.106760
     6  H   -0.054940
     7  H   -0.153363
     8  H   -0.145459
     9  H   -0.024026
    10  H   -0.059939
    11  H    0.023535
    12  O   -1.116305
 Sum of APT charges=  -1.00000
 APT Atomic charges with hydrogens summed into heavy atoms:
              1
     1  C    0.827875
     2  O   -0.862314
     3  C    0.195404
     4  C   -0.044660
     5  H    0.000000
     6  H    0.000000
     7  H    0.000000
     8  H    0.000000
     9  H    0.000000
    10  H    0.000000
    11  H    0.000000
    12  O   -1.116305
 Sum of APT charges=  -1.00000
 Electronic spatial extent (au):  <R**2>=            580.4577
 Charge=             -1.0000 electrons
 Dipole moment (field-independent basis, Debye):
    X=             -1.6099    Y=              0.0959    Z=              0.2890  Tot=              1.6385
 Quadrupole moment (field-independent basis, Debye-Ang):
   XX=            -37.4432   YY=            -35.7459   ZZ=            -64.3981
   XY=              0.2202   XZ=              8.0041   YZ=              3.1211
 Traceless Quadrupole moment (field-independent basis, Debye-Ang):
   XX=              8.4192   YY=             10.1165   ZZ=            -18.5357
   XY=              0.2202   XZ=              8.0041   YZ=              3.1211
 Octapole moment (field-independent basis, Debye-Ang**2):
  XXX=            -31.6494  YYY=             25.1831  ZZZ=             -4.4713  XYY=             -9.5742
  XXY=              9.0237  XXZ=              6.3891  XZZ=            -14.0694  YZZ=              9.3751
  YYZ=              1.2104  XYZ=              4.5122
 Hexadecapole moment (field-independent basis, Debye-Ang**3):
 XXXX=           -233.3909 YYYY=           -148.3797 ZZZZ=           -595.9423 XXXY=            -30.4357
 XXXZ=             50.4029 YYYX=            -31.1352 YYYZ=              1.9496 ZZZX=             92.0934
 ZZZY=             18.3709 XXYY=            -64.9917 XXZZ=           -121.8213 YYZZ=           -103.4087
 XXYZ=              2.1988 YYXZ=             15.3171 ZZXY=             -5.5817
 N-N= 1.718983076733D+02 E-N=-9.811633987938D+02  KE= 2.662698907970D+02
  Exact polarizability:  63.569   2.700  56.824  -7.987   0.534 102.094
 Approx polarizability:  81.132   1.866  72.697 -16.826  -3.005 173.713
 PrsmSu:  requested number of processors reduced to:  10 ShMem   1 Linda.
 PrsmSu:  requested number of processors reduced to:  11 ShMem   1 Linda.
 Calling FoFJK, ICntrl=    100127 FMM=F ISym2X=0 I1Cent= 0 IOpClX= 0 NMat=1 NMatS=1 NMatT=0.
 CoulSu:  requested number of processors reduced to:  11 ShMem   1 Linda.
 -------------------------------------------------------------------
 Center     Atomic                   Forces (Hartrees/Bohr)
 Number     Number              X              Y              Z
 -------------------------------------------------------------------
      1        6          -0.000645909    0.000061090    0.020900986
      2        8           0.000753883    0.000046182   -0.027104852
      3        6           0.000843334   -0.000078742   -0.000797178
      4        6          -0.000084630   -0.000004463   -0.000139613
      5        1           0.000057195    0.000050509   -0.000426729
      6        1          -0.000003424   -0.000004192    0.000207150
      7        1           0.000208844    0.000257982    0.000120547
      8        1           0.000098165   -0.000127031    0.000005002
      9        1          -0.000129720    0.000215492    0.000112594
     10        1           0.000183804   -0.000037659   -0.000095220
     11        1           0.000081266   -0.000035112    0.000061899
     12        8          -0.001362808   -0.000344056    0.004655413
 -------------------------------------------------------------------
 Cartesian Forces:  Max     0.027104852 RMS     0.005768827
 -----------------------------------------------------------------------------------------------
                       Internal Coordinate Forces (Hartree/Bohr or radian)
  Cent   Atom   N1       Length/X         N2         Alpha/Y        N3         Beta/Z          J
 -----------------------------------------------------------------------------------------------
      1  C 
      2  O        1  -0.027532(     1)
      3  C        1  -0.001836(     2)      2  -0.002458(    12)
      4  C        1  -0.000138(     3)      3  -0.000119(    13)      2  -0.000994(    22)     0
      5  H        2  -0.000022(     4)      1  -0.000793(    14)      3   0.000019(    23)     0
      6  H        1   0.000004(     5)      3   0.000196(    15)      4  -0.000341(    24)     0
      7  H        3   0.000353(     6)      1   0.000015(    16)      4  -0.000004(    25)     0
      8  H        3   0.000158(     7)      1   0.000065(    17)      4   0.000011(    26)     0
      9  H        4  -0.000262(     8)      1  -0.000043(    18)      3  -0.000160(    27)     0
     10  H        4  -0.000155(     9)      1  -0.000022(    19)      3   0.000273(    28)     0
     11  H        4   0.000069(    10)      1  -0.000094(    20)      3  -0.000138(    29)     0
     12  O        3  -0.003927(    11)      1  -0.007486(    21)      4   0.000388(    30)     0
 -----------------------------------------------------------------------------------------------
 Internal  Forces:  Max     0.027531581 RMS     0.005295308

 GradGradGradGradGradGradGradGradGradGradGradGradGradGradGradGradGradGrad
 Berny optimization.
 Search for a saddle point.
 Step number   1 out of a maximum of  100
 All quantities printed in internal units (Hartrees-Bohrs-Radians)
 Swaping is turned off.
 Second derivative matrix not updated -- analytic derivatives used.
 ITU=  0
     Eigenvalues ---   -0.02661  -0.00230   0.00291   0.02133   0.03929
     Eigenvalues ---    0.05584   0.08932   0.10876   0.11966   0.12611
     Eigenvalues ---    0.13454   0.15674   0.20570   0.22379   0.25617
     Eigenvalues ---    0.28502   0.28559   0.29763   0.30703   0.33326
     Eigenvalues ---    0.34291   0.34570   0.34833   0.35016   0.36881
     Eigenvalues ---    0.37526   0.41978   0.44066   0.50733   0.51710
 Eigenvectors required to have negative eigenvalues:
                          B1        D3        A10       D5        D1
   1                    0.87055  -0.28573  -0.27034   0.15202   0.10004
                          A3        A6        A5        D9        B2
   1                    0.09152   0.08146   0.07745   0.07572  -0.07442
 RFO step:  Lambda0=1.246181737D-02 Lambda=-6.09889827D-03.
 Linear search not attempted -- option 19 set.
 Maximum step size (   0.300) exceeded in Quadratic search.
    -- Step size scaled by   0.303
 Variable       Old X    -DE/DX   Delta X   Delta X   Delta X     New X
                                 (Linear)    (Quad)   (Total)
    B1        4.24536  -0.02753   0.00000   0.08803   0.08803   4.33339
    B2        2.80928  -0.00184   0.00000  -0.02529  -0.02529   2.78399
    B3        2.83429  -0.00014   0.00000  -0.00384  -0.00384   2.83045
    B4        1.83134  -0.00002   0.00000  -0.00025  -0.00025   1.83109
    B5        2.04426   0.00000   0.00000  -0.00317  -0.00317   2.04109
    B6        2.09910   0.00035   0.00000  -0.00529  -0.00529   2.09380
    B7        2.10222   0.00016   0.00000  -0.00531  -0.00531   2.09691
    B8        2.06942  -0.00026   0.00000  -0.00051  -0.00051   2.06891
    B9        2.07241  -0.00015   0.00000   0.00114   0.00114   2.07355
   B10        2.06933   0.00007   0.00000  -0.00005  -0.00005   2.06928
   B11        2.61367  -0.00393   0.00000   0.01158   0.01158   2.62525
    A1        1.99575  -0.00246   0.00000  -0.01968  -0.01968   1.97608
    A2        2.08898  -0.00012   0.00000   0.01738   0.01738   2.10636
    A3        1.79692  -0.00079   0.00000   0.03982   0.03982   1.83674
    A4        2.00374   0.00020   0.00000   0.01730   0.01730   2.02104
    A5        1.96001   0.00001   0.00000   0.02656   0.02656   1.98657
    A6        1.95350   0.00006   0.00000   0.02322   0.02322   1.97672
    A7        1.91812  -0.00004   0.00000   0.00990   0.00990   1.92802
    A8        1.95953  -0.00002   0.00000  -0.00487  -0.00487   1.95467
    A9        1.87990  -0.00009   0.00000  -0.00725  -0.00725   1.87266
   A10        1.64860  -0.00749   0.00000  -0.07509  -0.07509   1.57351
    D1       -1.92121  -0.00099   0.00000   0.03416   0.03416  -1.88706
    D2        0.58605   0.00002   0.00000  -0.00603  -0.00603   0.58002
    D3       -2.61787  -0.00034   0.00000  -0.08637  -0.08637  -2.70424
    D4       -2.83653   0.00000   0.00000   0.00345   0.00345  -2.83308
    D5       -0.73275   0.00001   0.00000   0.05636   0.05636  -0.67639
    D6       -0.22061  -0.00016   0.00000   0.13945   0.13945  -0.08115
    D7       -2.33113   0.00027   0.00000   0.14084   0.14084  -2.19029
    D8        1.87189  -0.00014   0.00000   0.14050   0.14050   2.01238
    D9        1.35397   0.00039   0.00000   0.02982   0.02982   1.38379
         Item               Value     Threshold  Converged?
 Maximum Force            0.027532     0.000450     NO 
 RMS     Force            0.005295     0.000300     NO 
 Maximum Displacement     0.140842     0.001800     NO 
 RMS     Displacement     0.054772     0.001200     NO 
 Predicted change in Energy= 1.572325D-03
 GradGradGradGradGradGradGradGradGradGradGradGradGradGradGradGradGradGrad

 ---------------------------------------------------------------------------------------------------
                            Z-MATRIX (ANGSTROMS AND DEGREES)
   CD    Cent   Atom    N1       Length/X        N2       Alpha/Y        N3        Beta/Z          J
 ---------------------------------------------------------------------------------------------------
      1      1  C 
      2      2  O        1   2.293131(     1)
      3      3  C        1   1.473224(     2)      2  113.221(    12)
      4      4  C        1   1.497808(     3)      3  120.685(    13)      2 -108.120(    22)      0
      5      5  H        2   0.968973(     4)      1  105.237(    14)      3   33.233(    23)      0
      6      6  H        1   1.080098(     5)      3  115.797(    15)      4 -154.941(    24)      0
      7      7  H        3   1.107992(     6)      1  113.822(    16)      4 -162.324(    25)      0
      8      8  H        3   1.109635(     7)      1  113.258(    17)      4  -38.754(    26)      0
      9      9  H        4   1.094820(     8)      1  110.467(    18)      3   -4.650(    27)      0
     10     10  H        4   1.097275(     9)      1  111.994(    19)      3 -125.494(    28)      0
     11     11  H        4   1.095017(    10)      1  107.295(    20)      3  115.301(    29)      0
     12     12  O        3   1.389223(    11)      1   90.156(    21)      4   79.285(    30)      0
 ---------------------------------------------------------------------------------------------------
                         Z-Matrix orientation:                         
 ---------------------------------------------------------------------
 Center     Atomic      Atomic             Coordinates (Angstroms)
 Number     Number       Type             X           Y           Z
 ---------------------------------------------------------------------
      1          6           0        0.000000    0.000000    0.000000
      2          8           0        0.000000    0.000000    2.293131
      3          6           0        1.353880    0.000000   -0.580858
      4          6           0       -0.860402   -1.224205   -0.066787
      5          1           0        0.782008    0.512366    2.547795
      6          1           0       -0.478280    0.965336    0.077372
      7          1           0        1.998894    0.822125   -0.212464
      8          1           0        1.898188   -0.954068   -0.423462
      9          1           0       -0.367484   -2.007089   -0.652239
     10          1           0       -1.836767   -1.015933   -0.522139
     11          1           0       -1.018385   -1.567541    0.960940
     12          8           0        0.814180    0.179055   -1.848377
 ---------------------------------------------------------------------
                    Distance matrix (angstroms):
                    1          2          3          4          5
     1  C    0.000000
     2  O    2.293131   0.000000
     3  C    1.473224   3.176917   0.000000
     4  C    1.497808   2.794312   2.581858   0.000000
     5  H    2.713911   0.968973   3.221495   3.542489   0.000000
     6  H    1.080098   2.463780   2.173005   2.227305   2.810071
     7  H    2.171775   3.308998   1.107992   3.519127   3.032456
     8  H    2.166260   3.448657   1.109635   2.794639   3.496377
     9  H    2.142164   3.583107   2.645108   1.094820   4.231927
    10  H    2.162975   3.511635   3.349000   1.097275   4.314878
    11  H    2.101832   2.295435   3.234497   1.095017   3.175773
    12  O    2.027671   4.224575   1.389223   2.819118   4.408907
                    6          7          8          9         10
     6  H    0.000000
     7  H    2.498179   0.000000
     8  H    3.095568   1.791514   0.000000
     9  H    3.062665   3.714512   2.508876   0.000000
    10  H    2.475950   4.264581   3.736770   1.777108   0.000000
    11  H    2.736398   4.023848   3.286231   1.794219   1.781445
    12  O    2.448918   2.119740   2.118826   2.757953   3.196001
                   11         12
    11  H    0.000000
    12  O    3.781687   0.000000
 Symmetry turned off by external request.
 Stoichiometry    C3H7O2(1-)
 Framework group  C1[X(C3H7O2)]
 Deg. of freedom    30
 Full point group                 C1      NOp   1
 Rotational constants (GHZ):      7.7421124      2.9543504      2.3355346
 Standard basis: 6-31++G(d,p) (6D, 7F)
 The following finite field(s) will be applied:
 An electric field of              0.0000  0.0000 -0.0025
 Integral buffers will be    131072 words long.
 Raffenetti 2 integral format.
 Two-electron integral symmetry is turned off.
   137 basis functions,   216 primitive gaussians,   137 cartesian basis functions
    21 alpha electrons       21 beta electrons
       nuclear repulsion energy       172.3598382156 Hartrees.
 NAtoms=   12 NActive=   12 NUniq=   12 SFac= 1.00D+00 NAtFMM=   50 NAOKFM=F Big=F
 One-electron integrals computed using PRISM.
 PrsmSu:  requested number of processors reduced to:  10 ShMem   1 Linda.
 NBasis=   137 RedAO= T  NBF=   137
 NBsUse=   137 1.00D-06 NBFU=   137
 The nuclear repulsion energy is now       172.3529976149 hartrees.
 Initial guess read from the read-write file.
 B after Tr=     0.000000    0.000000    0.000000
         Rot=    1.000000    0.000000    0.000000    0.000000 Ang=   0.00 deg.
 Harris functional with IExCor=  402 diagonalized for initial guess.
 ExpMin= 3.60D-02 ExpMax= 5.48D+03 ExpMxC= 8.25D+02 IAcc=3 IRadAn=         0 AccDes= 0.00D+00
 HarFok:  IExCor=  402 AccDes= 0.00D+00 IRadAn=         0 IDoV= 1
 ScaDFX=  1.000000  1.000000  1.000000  1.000000
 FoFCou: FMM=F IPFlag=           0 FMFlag=      100000 FMFlg1=           0
         NFxFlg=           0 DoJE=T BraDBF=F KetDBF=T FulRan=T
         Omega=  0.000000  0.000000  1.000000  0.000000  0.000000 ICntrl=     500 IOpCl=  0
         NMat0=    1 NMatS0=    1 NMatT0=    0 NMatD0=    1 NMtDS0=    0 NMtDT0=    0
         I1Cent=           4 NGrid=           0.
 Symmetry not used in FoFCou.
 Requested convergence on RMS density matrix=1.00D-08 within 128 cycles.
 Requested convergence on MAX density matrix=1.00D-06.
 Requested convergence on             energy=1.00D-06.
 No special actions if energy rises.
 SCF Done:  E(RB3LYP) =  -268.937228640     A.U. after   12 cycles
             Convg  =    0.5170D-08             -V/T =  2.0099
 Range of M.O.s used for correlation:     1   137
 NBasis=   137 NAE=    21 NBE=    21 NFC=     0 NFV=     0
 NROrb=    137 NOA=    21 NOB=    21 NVA=   116 NVB=   116

 **** Warning!!: The largest alpha MO coefficient is  0.36669638D+02

 PrsmSu:  requested number of processors reduced to:  10 ShMem   1 Linda.
 PrsmSu:  requested number of processors reduced to:  18 ShMem   1 Linda.
 Symmetrizing basis deriv contribution to polar:
 IMax=3 JMax=2 DiffMx= 0.00D+00
 G2DrvN: will do     4 centers at a time, making    4 passes doing MaxLOS=2.
 Estimated number of processors is:   15
 Calling FoFCou, ICntrl=  3107 FMM=F I1Cent=   0 AccDes= 0.00D+00.
 CoulSu:  requested number of processors reduced to:  15 ShMem   1 Linda.
 Calling FoFCou, ICntrl=  3107 FMM=F I1Cent=   0 AccDes= 0.00D+00.
 CoulSu:  requested number of processors reduced to:  15 ShMem   1 Linda.
 Calling FoFCou, ICntrl=  3107 FMM=F I1Cent=   0 AccDes= 0.00D+00.
 CoulSu:  requested number of processors reduced to:  15 ShMem   1 Linda.
 Calling FoFCou, ICntrl=  3107 FMM=F I1Cent=   0 AccDes= 0.00D+00.
 CoulSu:  requested number of processors reduced to:  15 ShMem   1 Linda.
 FoFDir/FoFCou used for L=0 through L=2.
 End of G2Drv Frequency-dependent properties file   721 does not exist.
 End of G2Drv Frequency-dependent properties file   722 does not exist.
          IDoAtm=111111111111
          Differentiating once with respect to electric field.
                with respect to dipole field.
          Differentiating once with respect to nuclear coordinates.
 PrRfSu:  requested number of processors reduced to:  15 ShMem   1 Linda.
 CalDSu:  requested number of processors reduced to:  19 ShMem   1 Linda.
          There are    39 degrees of freedom in the 1st order CPHF.  IDoFFX=5.
     36 vectors produced by pass  0 Test12= 6.25D-15 2.56D-09 XBig12= 1.94D+02 7.73D+00.
 AX will form    36 AO Fock derivatives at one time.
 PrRfSu:  requested number of processors reduced to:  15 ShMem   1 Linda.
 CalDSu:  requested number of processors reduced to:  20 ShMem   1 Linda.
     36 vectors produced by pass  1 Test12= 6.25D-15 2.56D-09 XBig12= 9.17D+01 2.80D+00.
 PrRfSu:  requested number of processors reduced to:  15 ShMem   1 Linda.
 CalDSu:  requested number of processors reduced to:  20 ShMem   1 Linda.
     36 vectors produced by pass  2 Test12= 6.25D-15 2.56D-09 XBig12= 2.06D-01 7.24D-02.
 PrRfSu:  requested number of processors reduced to:  15 ShMem   1 Linda.
 CalDSu:  requested number of processors reduced to:  20 ShMem   1 Linda.
     36 vectors produced by pass  3 Test12= 6.25D-15 2.56D-09 XBig12= 1.09D-03 5.06D-03.
 PrRfSu:  requested number of processors reduced to:  15 ShMem   1 Linda.
 CalDSu:  requested number of processors reduced to:  20 ShMem   1 Linda.
     36 vectors produced by pass  4 Test12= 6.25D-15 2.56D-09 XBig12= 2.88D-06 3.16D-04.
 PrRfSu:  requested number of processors reduced to:  15 ShMem   1 Linda.
 CalDSu:  requested number of processors reduced to:  20 ShMem   1 Linda.
     28 vectors produced by pass  5 Test12= 6.25D-15 2.56D-09 XBig12= 3.32D-09 7.53D-06.
 PrRfSu:  requested number of processors reduced to:  16 ShMem   1 Linda.
 CalDSu:  requested number of processors reduced to:  21 ShMem   1 Linda.
      7 vectors produced by pass  6 Test12= 6.25D-15 2.56D-09 XBig12= 3.31D-12 2.17D-07.
 PrRfSu:  requested number of processors reduced to:  18 ShMem   1 Linda.
      3 vectors produced by pass  7 Test12= 6.25D-15 2.56D-09 XBig12= 1.99D-14 2.68D-08.
      1 vectors produced by pass  8 Test12= 6.25D-15 2.56D-09 XBig12= 2.21D-16 3.44D-09.
 Inverted reduced A of dimension   219 with in-core refinement.
 Isotropic polarizability for W=    0.000000       73.86 Bohr**3.
 End of Minotr Frequency-dependent properties file   721 does not exist.
 End of Minotr Frequency-dependent properties file   722 does not exist.
 PrsmSu:  requested number of processors reduced to:  10 ShMem   1 Linda.
 PrsmSu:  requested number of processors reduced to:  11 ShMem   1 Linda.
 Calling FoFJK, ICntrl=    100127 FMM=F ISym2X=0 I1Cent= 0 IOpClX= 0 NMat=1 NMatS=1 NMatT=0.
 CoulSu:  requested number of processors reduced to:  11 ShMem   1 Linda.
 -------------------------------------------------------------------
 Center     Atomic                   Forces (Hartrees/Bohr)
 Number     Number              X              Y              Z
 -------------------------------------------------------------------
      1        6          -0.000608522   -0.000555474    0.016756245
      2        8           0.000548257    0.000005848   -0.021420639
      3        6           0.001005731    0.000152735   -0.001304178
      4        6          -0.000501440    0.000286620   -0.000043491
      5        1           0.000040427    0.000029952   -0.000258082
      6        1          -0.000035416    0.000157666    0.000151780
      7        1           0.000056031    0.000414750    0.000104962
      8        1          -0.000057509   -0.000248028    0.000001193
      9        1           0.000166806    0.000090898    0.000258768
     10        1           0.000230984    0.000060396   -0.000272660
     11        1           0.000003801   -0.000083100   -0.000013038
     12        8          -0.000849150   -0.000312262    0.003539139
 -------------------------------------------------------------------
 Cartesian Forces:  Max     0.021420639 RMS     0.004587486
 -----------------------------------------------------------------------------------------------
                       Internal Coordinate Forces (Hartree/Bohr or radian)
  Cent   Atom   N1       Length/X         N2         Alpha/Y        N3         Beta/Z          J
 -----------------------------------------------------------------------------------------------
      1  C 
      2  O        1  -0.021679(     1)
      3  C        1  -0.000781(     2)      2  -0.001718(    12)
      4  C        1  -0.000230(     3)      3   0.000173(    13)      2  -0.000659(    22)     0
      5  H        2  -0.000019(     4)      1  -0.000480(    14)      3   0.000005(    23)     0
      6  H        1   0.000167(     5)      3   0.000044(    15)      4  -0.000264(    24)     0
      7  H        3   0.000375(     6)      1  -0.000324(    16)      4  -0.000280(    25)     0
      8  H        3   0.000185(     7)      1  -0.000289(    17)      4   0.000207(    26)     0
      9  H        4  -0.000128(     8)      1  -0.000302(    18)      3   0.000495(    27)     0
     10  H        4  -0.000081(     9)      1  -0.000312(    19)      3   0.000614(    28)     0
     11  H        4   0.000013(    10)      1   0.000135(    20)      3  -0.000102(    29)     0
     12  O        3  -0.002939(    11)      1  -0.005691(    21)      4   0.000174(    30)     0
 -----------------------------------------------------------------------------------------------
 Internal  Forces:  Max     0.021678722 RMS     0.004150419

 GradGradGradGradGradGradGradGradGradGradGradGradGradGradGradGradGradGrad
 Berny optimization.
 Search for a saddle point.
 Step number   2 out of a maximum of  100
 All quantities printed in internal units (Hartrees-Bohrs-Radians)
 Swaping is turned off.
 Second derivative matrix not updated -- analytic derivatives used.
 ITU=  0  0
     Eigenvalues ---   -0.02806  -0.00080   0.00262   0.02327   0.03255
     Eigenvalues ---    0.05341   0.08535   0.10683   0.12371   0.12449
     Eigenvalues ---    0.12524   0.15549   0.20494   0.22465   0.26311
     Eigenvalues ---    0.29103   0.29243   0.30030   0.30490   0.33020
     Eigenvalues ---    0.34271   0.34608   0.34901   0.35057   0.36803
     Eigenvalues ---    0.37877   0.41022   0.44750   0.51507   0.51695
 Eigenvectors required to have negative eigenvalues:
                          B1        D3        A10       D5        A3
   1                    0.82753  -0.32759  -0.32120   0.18221   0.13239
                          D1        A6        D9        A5        B2
   1                    0.10881   0.09083   0.08891   0.08036  -0.07228
 RFO step:  Lambda0=7.438319904D-03 Lambda=-4.25978475D-03.
 Linear search not attempted -- option 19 set.
 Maximum step size (   0.300) exceeded in Quadratic search.
    -- Step size scaled by   0.321
 Variable       Old X    -DE/DX   Delta X   Delta X   Delta X     New X
                                 (Linear)    (Quad)   (Total)
    B1        4.33339  -0.02168   0.00000   0.06788   0.06788   4.40127
    B2        2.78399  -0.00078   0.00000  -0.02114  -0.02114   2.76285
    B3        2.83045  -0.00023   0.00000  -0.00421  -0.00421   2.82623
    B4        1.83109  -0.00002   0.00000  -0.00025  -0.00025   1.83084
    B5        2.04109   0.00017   0.00000  -0.00226  -0.00226   2.03882
    B6        2.09380   0.00038   0.00000  -0.00494  -0.00494   2.08886
    B7        2.09691   0.00019   0.00000  -0.00533  -0.00533   2.09158
    B8        2.06891  -0.00013   0.00000   0.00033   0.00033   2.06924
    B9        2.07355  -0.00008   0.00000   0.00097   0.00097   2.07452
   B10        2.06928   0.00001   0.00000  -0.00062  -0.00062   2.06867
   B11        2.62525  -0.00294   0.00000   0.01219   0.01219   2.63744
    A1        1.97608  -0.00172   0.00000  -0.01727  -0.01727   1.95881
    A2        2.10636   0.00017   0.00000   0.01902   0.01902   2.12538
    A3        1.83674  -0.00048   0.00000   0.04947   0.04947   1.88621
    A4        2.02104   0.00004   0.00000   0.01452   0.01452   2.03556
    A5        1.98657  -0.00032   0.00000   0.02434   0.02434   2.01091
    A6        1.97672  -0.00029   0.00000   0.02274   0.02274   1.99946
    A7        1.92802  -0.00030   0.00000   0.00584   0.00584   1.93386
    A8        1.95467  -0.00031   0.00000  -0.00688  -0.00688   1.94778
    A9        1.87266   0.00014   0.00000  -0.00359  -0.00359   1.86906
   A10        1.57351  -0.00569   0.00000  -0.07915  -0.07915   1.49436
    D1       -1.88706  -0.00066   0.00000   0.03641   0.03641  -1.85065
    D2        0.58002   0.00001   0.00000  -0.00782  -0.00782   0.57220
    D3       -2.70424  -0.00026   0.00000  -0.08905  -0.08905  -2.79329
    D4       -2.83308  -0.00028   0.00000  -0.00252  -0.00252  -2.83560
    D5       -0.67639   0.00021   0.00000   0.05700   0.05700  -0.61939
    D6       -0.08115   0.00050   0.00000   0.14231   0.14231   0.06116
    D7       -2.19029   0.00061   0.00000   0.14513   0.14513  -2.04516
    D8        2.01238  -0.00010   0.00000   0.13881   0.13881   2.15120
    D9        1.38379   0.00017   0.00000   0.02784   0.02784   1.41163
         Item               Value     Threshold  Converged?
 Maximum Force            0.021679     0.000450     NO 
 RMS     Force            0.004150     0.000300     NO 
 Maximum Displacement     0.145129     0.001800     NO 
 RMS     Displacement     0.054772     0.001200     NO 
 Predicted change in Energy= 7.464479D-04
 GradGradGradGradGradGradGradGradGradGradGradGradGradGradGradGradGradGrad

 ---------------------------------------------------------------------------------------------------
                            Z-MATRIX (ANGSTROMS AND DEGREES)
   CD    Cent   Atom    N1       Length/X        N2       Alpha/Y        N3        Beta/Z          J
 ---------------------------------------------------------------------------------------------------
      1      1  C 
      2      2  O        1   2.329054(     1)
      3      3  C        1   1.462037(     2)      2  112.231(    12)
      4      4  C        1   1.495577(     3)      3  121.775(    13)      2 -106.034(    22)      0
      5      5  H        2   0.968839(     4)      1  108.072(    14)      3   32.785(    23)      0
      6      6  H        1   1.078900(     5)      3  116.629(    15)      4 -160.044(    24)      0
      7      7  H        3   1.105376(     6)      1  115.217(    16)      4 -162.468(    25)      0
      8      8  H        3   1.106815(     7)      1  114.560(    17)      4  -35.488(    26)      0
      9      9  H        4   1.094996(     8)      1  110.802(    18)      3    3.504(    27)      0
     10     10  H        4   1.097789(     9)      1  111.600(    19)      3 -117.179(    28)      0
     11     11  H        4   1.094691(    10)      1  107.089(    20)      3  123.255(    29)      0
     12     12  O        3   1.395676(    11)      1   85.620(    21)      4   80.880(    30)      0
 ---------------------------------------------------------------------------------------------------
                         Z-Matrix orientation:                         
 ---------------------------------------------------------------------
 Center     Atomic      Atomic             Coordinates (Angstroms)
 Number     Number       Type             X           Y           Z
 ---------------------------------------------------------------------
      1          6           0        0.000000    0.000000    0.000000
      2          8           0        0.000000    0.000000    2.329054
      3          6           0        1.353356    0.000000   -0.553156
      4          6           0       -0.861879   -1.221958   -0.027113
      5          1           0        0.774333    0.498728    2.629600
      6          1           0       -0.472584    0.962201    0.121896
      7          1           0        1.998484    0.833273   -0.219509
      8          1           0        1.906058   -0.949202   -0.416864
      9          1           0       -0.315453   -2.074055   -0.444684
     10          1           0       -1.766170   -1.065379   -0.629510
     11          1           0       -1.149035   -1.436093    1.007312
     12          8           0        0.732022    0.167538   -1.791618
 ---------------------------------------------------------------------
                    Distance matrix (angstroms):
                    1          2          3          4          5
     1  C    0.000000
     2  O    2.329054   0.000000
     3  C    1.462037   3.184133   0.000000
     4  C    1.495577   2.790616   2.584021   0.000000
     5  H    2.786237   0.968839   3.273215   3.563155   0.000000
     6  H    1.078900   2.453714   2.171539   2.223579   2.838695
     7  H    2.176343   3.344167   1.105376   3.527417   3.118956
     8  H    2.169751   3.474781   1.106815   2.808518   3.557843
     9  H    2.144518   3.477763   2.664281   1.094996   4.154283
    10  H    2.156541   3.606589   3.297317   1.097789   4.418414
    11  H    2.096979   2.264872   3.280149   1.094691   3.174066
    12  O    1.942632   4.188539   1.395676   2.754033   4.433807
                    6          7          8          9         10
     6  H    0.000000
     7  H    2.497871   0.000000
     8  H    3.098655   1.795748   0.000000
     9  H    3.092661   3.722575   2.490216   0.000000
    10  H    2.519732   4.236224   3.680213   1.776561   0.000000
    11  H    2.644496   4.069642   3.405720   1.791688   1.788147
    12  O    2.396685   2.125713   2.124951   2.817121   3.018533
                   11         12
    11  H    0.000000
    12  O    3.734168   0.000000
 Symmetry turned off by external request.
 Stoichiometry    C3H7O2(1-)
 Framework group  C1[X(C3H7O2)]
 Deg. of freedom    30
 Full point group                 C1      NOp   1
 Rotational constants (GHZ):      7.7613448      2.9885743      2.3638892
 Standard basis: 6-31++G(d,p) (6D, 7F)
 The following finite field(s) will be applied:
 An electric field of              0.0000  0.0000 -0.0025
 Integral buffers will be    131072 words long.
 Raffenetti 2 integral format.
 Two-electron integral symmetry is turned off.
   137 basis functions,   216 primitive gaussians,   137 cartesian basis functions
    21 alpha electrons       21 beta electrons
       nuclear repulsion energy       173.0765788547 Hartrees.
 NAtoms=   12 NActive=   12 NUniq=   12 SFac= 1.00D+00 NAtFMM=   50 NAOKFM=F Big=F
 One-electron integrals computed using PRISM.
 PrsmSu:  requested number of processors reduced to:  10 ShMem   1 Linda.
 NBasis=   137 RedAO= T  NBF=   137
 NBsUse=   137 1.00D-06 NBFU=   137
 The nuclear repulsion energy is now       173.0630384521 hartrees.
 Initial guess read from the read-write file.
 B after Tr=     0.000000    0.000000    0.000000
         Rot=    1.000000    0.000000    0.000000    0.000000 Ang=   0.00 deg.
 Harris functional with IExCor=  402 diagonalized for initial guess.
 ExpMin= 3.60D-02 ExpMax= 5.48D+03 ExpMxC= 8.25D+02 IAcc=3 IRadAn=         0 AccDes= 0.00D+00
 HarFok:  IExCor=  402 AccDes= 0.00D+00 IRadAn=         0 IDoV= 1
 ScaDFX=  1.000000  1.000000  1.000000  1.000000
 FoFCou: FMM=F IPFlag=           0 FMFlag=      100000 FMFlg1=           0
         NFxFlg=           0 DoJE=T BraDBF=F KetDBF=T FulRan=T
         Omega=  0.000000  0.000000  1.000000  0.000000  0.000000 ICntrl=     500 IOpCl=  0
         NMat0=    1 NMatS0=    1 NMatT0=    0 NMatD0=    1 NMtDS0=    0 NMtDT0=    0
         I1Cent=           4 NGrid=           0.
 Symmetry not used in FoFCou.
 Requested convergence on RMS density matrix=1.00D-08 within 128 cycles.
 Requested convergence on MAX density matrix=1.00D-06.
 Requested convergence on             energy=1.00D-06.
 No special actions if energy rises.
 SCF Done:  E(RB3LYP) =  -268.936482360     A.U. after   12 cycles
             Convg  =    0.5701D-08             -V/T =  2.0098
 Range of M.O.s used for correlation:     1   137
 NBasis=   137 NAE=    21 NBE=    21 NFC=     0 NFV=     0
 NROrb=    137 NOA=    21 NOB=    21 NVA=   116 NVB=   116

 **** Warning!!: The largest alpha MO coefficient is  0.39639235D+02

 PrsmSu:  requested number of processors reduced to:  10 ShMem   1 Linda.
 PrsmSu:  requested number of processors reduced to:  18 ShMem   1 Linda.
 Symmetrizing basis deriv contribution to polar:
 IMax=3 JMax=2 DiffMx= 0.00D+00
 G2DrvN: will do     4 centers at a time, making    4 passes doing MaxLOS=2.
 Estimated number of processors is:   15
 Calling FoFCou, ICntrl=  3107 FMM=F I1Cent=   0 AccDes= 0.00D+00.
 CoulSu:  requested number of processors reduced to:  15 ShMem   1 Linda.
 Calling FoFCou, ICntrl=  3107 FMM=F I1Cent=   0 AccDes= 0.00D+00.
 CoulSu:  requested number of processors reduced to:  15 ShMem   1 Linda.
 Calling FoFCou, ICntrl=  3107 FMM=F I1Cent=   0 AccDes= 0.00D+00.
 CoulSu:  requested number of processors reduced to:  15 ShMem   1 Linda.
 Calling FoFCou, ICntrl=  3107 FMM=F I1Cent=   0 AccDes= 0.00D+00.
 CoulSu:  requested number of processors reduced to:  15 ShMem   1 Linda.
 FoFDir/FoFCou used for L=0 through L=2.
 End of G2Drv Frequency-dependent properties file   721 does not exist.
 End of G2Drv Frequency-dependent properties file   722 does not exist.
          IDoAtm=111111111111
          Differentiating once with respect to electric field.
                with respect to dipole field.
          Differentiating once with respect to nuclear coordinates.
 PrRfSu:  requested number of processors reduced to:  15 ShMem   1 Linda.
 CalDSu:  requested number of processors reduced to:  19 ShMem   1 Linda.
          There are    39 degrees of freedom in the 1st order CPHF.  IDoFFX=5.
     36 vectors produced by pass  0 Test12= 6.25D-15 2.56D-09 XBig12= 1.76D+02 1.04D+01.
 AX will form    36 AO Fock derivatives at one time.
 PrRfSu:  requested number of processors reduced to:  15 ShMem   1 Linda.
 CalDSu:  requested number of processors reduced to:  20 ShMem   1 Linda.
     36 vectors produced by pass  1 Test12= 6.25D-15 2.56D-09 XBig12= 8.52D+01 2.85D+00.
 PrRfSu:  requested number of processors reduced to:  15 ShMem   1 Linda.
 CalDSu:  requested number of processors reduced to:  20 ShMem   1 Linda.
     36 vectors produced by pass  2 Test12= 6.25D-15 2.56D-09 XBig12= 2.11D-01 8.74D-02.
 PrRfSu:  requested number of processors reduced to:  15 ShMem   1 Linda.
 CalDSu:  requested number of processors reduced to:  20 ShMem   1 Linda.
     36 vectors produced by pass  3 Test12= 6.25D-15 2.56D-09 XBig12= 1.12D-03 7.43D-03.
 PrRfSu:  requested number of processors reduced to:  15 ShMem   1 Linda.
 CalDSu:  requested number of processors reduced to:  20 ShMem   1 Linda.
     36 vectors produced by pass  4 Test12= 6.25D-15 2.56D-09 XBig12= 2.87D-06 3.31D-04.
 PrRfSu:  requested number of processors reduced to:  15 ShMem   1 Linda.
 CalDSu:  requested number of processors reduced to:  20 ShMem   1 Linda.
     30 vectors produced by pass  5 Test12= 6.25D-15 2.56D-09 XBig12= 3.33D-09 7.19D-06.
 PrRfSu:  requested number of processors reduced to:  16 ShMem   1 Linda.
 CalDSu:  requested number of processors reduced to:  21 ShMem   1 Linda.
      8 vectors produced by pass  6 Test12= 6.25D-15 2.56D-09 XBig12= 3.38D-12 2.22D-07.
 PrRfSu:  requested number of processors reduced to:  18 ShMem   1 Linda.
      3 vectors produced by pass  7 Test12= 6.25D-15 2.56D-09 XBig12= 1.73D-14 2.31D-08.
 Inverted reduced A of dimension   221 with in-core refinement.
 Isotropic polarizability for W=    0.000000       73.08 Bohr**3.
 End of Minotr Frequency-dependent properties file   721 does not exist.
 End of Minotr Frequency-dependent properties file   722 does not exist.
 PrsmSu:  requested number of processors reduced to:  10 ShMem   1 Linda.
 PrsmSu:  requested number of processors reduced to:  11 ShMem   1 Linda.
 Calling FoFJK, ICntrl=    100127 FMM=F ISym2X=0 I1Cent= 0 IOpClX= 0 NMat=1 NMatS=1 NMatT=0.
 CoulSu:  requested number of processors reduced to:  11 ShMem   1 Linda.
 -------------------------------------------------------------------
 Center     Atomic                   Forces (Hartrees/Bohr)
 Number     Number              X              Y              Z
 -------------------------------------------------------------------
      1        6          -0.001025435   -0.000272879    0.011376972
      2        8           0.000313299   -0.000115835   -0.015966856
      3        6           0.001560308   -0.000043252   -0.001050611
      4        6          -0.000695020    0.000180850    0.000318278
      5        1           0.000024914    0.000049898   -0.000177214
      6        1           0.000063807    0.000337043    0.000212758
      7        1          -0.000082183    0.000498645    0.000067987
      8        1          -0.000178572   -0.000340938   -0.000068845
      9        1           0.000218559    0.000028952    0.000323972
     10        1           0.000253513    0.000099437   -0.000168328
     11        1           0.000080912   -0.000300374   -0.000079163
     12        8          -0.000534102   -0.000121545    0.002711050
 -------------------------------------------------------------------
 Cartesian Forces:  Max     0.015966856 RMS     0.003326618
 -----------------------------------------------------------------------------------------------
                       Internal Coordinate Forces (Hartree/Bohr or radian)
  Cent   Atom   N1       Length/X         N2         Alpha/Y        N3         Beta/Z          J
 -----------------------------------------------------------------------------------------------
      1  C 
      2  O        1  -0.016144(     1)
      3  C        1   0.000081(     2)      2  -0.000833(    12)
      4  C        1   0.000067(     3)      3   0.000185(    13)      2  -0.000168(    22)     0
      5  H        2  -0.000009(     4)      1  -0.000336(    14)      3   0.000050(    23)     0
      6  H        1   0.000297(     5)      3  -0.000254(    15)      4  -0.000444(    24)     0
      7  H        3   0.000348(     6)      1  -0.000578(    16)      4  -0.000471(    25)     0
      8  H        3   0.000195(     7)      1  -0.000506(    17)      4   0.000452(    26)     0
      9  H        4  -0.000037(     8)      1  -0.000315(    18)      3   0.000695(    27)     0
     10  H        4  -0.000102(     9)      1  -0.000416(    19)      3   0.000439(    28)     0
     11  H        4  -0.000037(    10)      1   0.000457(    20)      3  -0.000455(    29)     0
     12  O        3  -0.002182(    11)      1  -0.004462(    21)      4   0.000413(    30)     0
 -----------------------------------------------------------------------------------------------
 Internal  Forces:  Max     0.016144070 RMS     0.003105144

 GradGradGradGradGradGradGradGradGradGradGradGradGradGradGradGradGradGrad
 Berny optimization.
 Search for a saddle point.
 Step number   3 out of a maximum of  100
 All quantities printed in internal units (Hartrees-Bohrs-Radians)
 Swaping is turned off.
 Second derivative matrix not updated -- analytic derivatives used.
 ITU=  0  0  0
     Eigenvalues ---   -0.03071   0.00166   0.00237   0.02437   0.02721
     Eigenvalues ---    0.05247   0.08351   0.10504   0.12091   0.12401
     Eigenvalues ---    0.12778   0.15513   0.20538   0.22595   0.26804
     Eigenvalues ---    0.29318   0.29884   0.30005   0.30486   0.32868
     Eigenvalues ---    0.34360   0.34678   0.34944   0.35136   0.36888
     Eigenvalues ---    0.38284   0.40230   0.45954   0.51601   0.52573
 Eigenvectors required to have negative eigenvalues:
                          B1        D3        A10       D5        A3
   1                    0.76528  -0.37417  -0.37256   0.21655   0.16884
                          D1        D9        A6        A5        A2
   1                    0.10965   0.10650   0.09519   0.07962   0.07138
 RFO step:  Lambda0=3.352327528D-03 Lambda=-3.36623584D-03.
 Linear search not attempted -- option 19 set.
 Maximum step size (   0.300) exceeded in Quadratic search.
    -- Step size scaled by   0.659
 Variable       Old X    -DE/DX   Delta X   Delta X   Delta X     New X
                                 (Linear)    (Quad)   (Total)
    B1        4.40127  -0.01614   0.00000   0.03616   0.03616   4.43743
    B2        2.76285   0.00008   0.00000  -0.02514  -0.02514   2.73771
    B3        2.82623   0.00007   0.00000  -0.00095  -0.00095   2.82528
    B4        1.83084  -0.00001   0.00000  -0.00020  -0.00020   1.83064
    B5        2.03882   0.00030   0.00000  -0.00366  -0.00366   2.03517
    B6        2.08886   0.00035   0.00000  -0.00779  -0.00779   2.08106
    B7        2.09158   0.00019   0.00000  -0.00809  -0.00809   2.08349
    B8        2.06924  -0.00004   0.00000   0.00113   0.00113   2.07037
    B9        2.07452  -0.00010   0.00000   0.00014   0.00014   2.07466
   B10        2.06867  -0.00004   0.00000  -0.00041  -0.00041   2.06825
   B11        2.63744  -0.00218   0.00000   0.02082   0.02082   2.65827
    A1        1.95881  -0.00083   0.00000  -0.02479  -0.02479   1.93402
    A2        2.12538   0.00019   0.00000   0.01873   0.01873   2.14411
    A3        1.88621  -0.00034   0.00000   0.09183   0.09183   1.97805
    A4        2.03556  -0.00025   0.00000   0.01696   0.01696   2.05252
    A5        2.01091  -0.00058   0.00000   0.03418   0.03418   2.04509
    A6        1.99946  -0.00051   0.00000   0.03575   0.03575   2.03521
    A7        1.93386  -0.00032   0.00000  -0.00157  -0.00157   1.93229
    A8        1.94778  -0.00042   0.00000  -0.00581  -0.00581   1.94197
    A9        1.86906   0.00046   0.00000  -0.00154  -0.00154   1.86752
   A10        1.49436  -0.00446   0.00000  -0.13122  -0.13122   1.36314
    D1       -1.85065  -0.00017   0.00000   0.06586   0.06586  -1.78479
    D2        0.57220   0.00005   0.00000   0.03885   0.03885   0.61105
    D3       -2.79329  -0.00044   0.00000  -0.15877  -0.15877  -2.95206
    D4       -2.83560  -0.00047   0.00000   0.01646   0.01646  -2.81914
    D5       -0.61939   0.00045   0.00000   0.12106   0.12106  -0.49833
    D6        0.06116   0.00069   0.00000  -0.04971  -0.04971   0.01145
    D7       -2.04516   0.00044   0.00000  -0.04443  -0.04443  -2.08960
    D8        2.15120  -0.00045   0.00000  -0.05263  -0.05263   2.09857
    D9        1.41163   0.00041   0.00000   0.07000   0.07000   1.48163
         Item               Value     Threshold  Converged?
 Maximum Force            0.016144     0.000450     NO 
 RMS     Force            0.003105     0.000300     NO 
 Maximum Displacement     0.158767     0.001800     NO 
 RMS     Displacement     0.054772     0.001200     NO 
 Predicted change in Energy=-1.408885D-05
 GradGradGradGradGradGradGradGradGradGradGradGradGradGradGradGradGradGrad

 ---------------------------------------------------------------------------------------------------
                            Z-MATRIX (ANGSTROMS AND DEGREES)
   CD    Cent   Atom    N1       Length/X        N2       Alpha/Y        N3        Beta/Z          J
 ---------------------------------------------------------------------------------------------------
      1      1  C 
      2      2  O        1   2.348188(     1)
      3      3  C        1   1.448736(     2)      2  110.811(    12)
      4      4  C        1   1.495072(     3)      3  122.848(    13)      2 -102.261(    22)      0
      5      5  H        2   0.968732(     4)      1  113.334(    14)      3   35.010(    23)      0
      6      6  H        1   1.076963(     5)      3  117.601(    15)      4 -169.140(    24)      0
      7      7  H        3   1.101251(     6)      1  117.175(    16)      4 -161.525(    25)      0
      8      8  H        3   1.102535(     7)      1  116.609(    17)      4  -28.552(    26)      0
      9      9  H        4   1.095594(     8)      1  110.712(    18)      3    0.656(    27)      0
     10     10  H        4   1.097862(     9)      1  111.267(    19)      3 -119.725(    28)      0
     11     11  H        4   1.094473(    10)      1  107.001(    20)      3  120.239(    29)      0
     12     12  O        3   1.406695(    11)      1   78.102(    21)      4   84.891(    30)      0
 ---------------------------------------------------------------------------------------------------
                         Z-Matrix orientation:                         
 ---------------------------------------------------------------------
 Center     Atomic      Atomic             Coordinates (Angstroms)
 Number     Number       Type             X           Y           Z
 ---------------------------------------------------------------------
      1          6           0        0.000000    0.000000    0.000000
      2          8           0        0.000000    0.000000    2.348188
      3          6           0        1.354216    0.000000   -0.514719
      4          6           0       -0.852809   -1.227377    0.038790
      5          1           0        0.728546    0.510329    2.731889
      6          1           0       -0.458119    0.954117    0.199092
      7          1           0        2.002246    0.842075   -0.225375
      8          1           0        1.914067   -0.946179   -0.431682
      9          1           0       -0.306988   -2.091117   -0.356632
     10          1           0       -1.766029   -1.096713   -0.556404
     11          1           0       -1.113772   -1.402730    1.087132
     12          8           0        0.597884    0.171374   -1.688338
 ---------------------------------------------------------------------
                    Distance matrix (angstroms):
                    1          2          3          4          5
     1  C    0.000000
     2  O    2.348188   0.000000
     3  C    1.448736   3.167039   0.000000
     4  C    1.495072   2.750828   2.585301   0.000000
     5  H    2.873052   0.968732   3.345498   3.573945   0.000000
     6  H    1.076963   2.395585   2.168968   2.222699   2.831992
     7  H    2.183775   3.367686   1.101251   3.536064   3.236939
     8  H    2.178361   3.505222   1.102535   2.820641   3.679002
     9  H    2.143408   3.432647   2.675324   1.095594   4.168790
    10  H    2.152028   3.571875   3.307634   1.097862   4.429261
    11  H    2.095231   2.190525   3.259531   1.094473   3.123964
    12  O    1.799256   4.084162   1.406695   2.654051   4.435129
                    6          7          8          9         10
     6  H    0.000000
     7  H    2.499224   0.000000
     8  H    3.104234   1.802274   0.000000
     9  H    3.099212   3.735425   2.499920   0.000000
    10  H    2.547019   4.250691   3.685285   1.776949   0.000000
    11  H    2.602541   4.058496   3.418047   1.791433   1.794518
    12  O    2.300048   2.135962   2.135521   2.776886   2.911598
                   11         12
    11  H    0.000000
    12  O    3.620884   0.000000
 Symmetry turned off by external request.
 Stoichiometry    C3H7O2(1-)
 Framework group  C1[X(C3H7O2)]
 Deg. of freedom    30
 Full point group                 C1      NOp   1
 Rotational constants (GHZ):      7.7962616      3.0941406      2.4478221
 Standard basis: 6-31++G(d,p) (6D, 7F)
 The following finite field(s) will be applied:
 An electric field of              0.0000  0.0000 -0.0025
 Integral buffers will be    131072 words long.
 Raffenetti 2 integral format.
 Two-electron integral symmetry is turned off.
   137 basis functions,   216 primitive gaussians,   137 cartesian basis functions
    21 alpha electrons       21 beta electrons
       nuclear repulsion energy       174.9561257691 Hartrees.
 NAtoms=   12 NActive=   12 NUniq=   12 SFac= 1.00D+00 NAtFMM=   50 NAOKFM=F Big=F
 One-electron integrals computed using PRISM.
 PrsmSu:  requested number of processors reduced to:  10 ShMem   1 Linda.
 NBasis=   137 RedAO= T  NBF=   137
 NBsUse=   137 1.00D-06 NBFU=   137
 The nuclear repulsion energy is now       174.9331124871 hartrees.
 Initial guess read from the read-write file.
 B after Tr=     0.000000    0.000000    0.000000
         Rot=    1.000000    0.000000    0.000000    0.000000 Ang=   0.00 deg.
 Harris functional with IExCor=  402 diagonalized for initial guess.
 ExpMin= 3.60D-02 ExpMax= 5.48D+03 ExpMxC= 8.25D+02 IAcc=3 IRadAn=         0 AccDes= 0.00D+00
 HarFok:  IExCor=  402 AccDes= 0.00D+00 IRadAn=         0 IDoV= 1
 ScaDFX=  1.000000  1.000000  1.000000  1.000000
 FoFCou: FMM=F IPFlag=           0 FMFlag=      100000 FMFlg1=           0
         NFxFlg=           0 DoJE=T BraDBF=F KetDBF=T FulRan=T
         Omega=  0.000000  0.000000  1.000000  0.000000  0.000000 ICntrl=     500 IOpCl=  0
         NMat0=    1 NMatS0=    1 NMatT0=    0 NMatD0=    1 NMtDS0=    0 NMtDT0=    0
         I1Cent=           4 NGrid=           0.
 Symmetry not used in FoFCou.
 Requested convergence on RMS density matrix=1.00D-08 within 128 cycles.
 Requested convergence on MAX density matrix=1.00D-06.
 Requested convergence on             energy=1.00D-06.
 No special actions if energy rises.
 SCF Done:  E(RB3LYP) =  -268.936691283     A.U. after   12 cycles
             Convg  =    0.8942D-08             -V/T =  2.0095
 Range of M.O.s used for correlation:     1   137
 NBasis=   137 NAE=    21 NBE=    21 NFC=     0 NFV=     0
 NROrb=    137 NOA=    21 NOB=    21 NVA=   116 NVB=   116

 **** Warning!!: The largest alpha MO coefficient is  0.39991695D+02

 PrsmSu:  requested number of processors reduced to:  10 ShMem   1 Linda.
 PrsmSu:  requested number of processors reduced to:  18 ShMem   1 Linda.
 Symmetrizing basis deriv contribution to polar:
 IMax=3 JMax=2 DiffMx= 0.00D+00
 G2DrvN: will do     4 centers at a time, making    4 passes doing MaxLOS=2.
 Estimated number of processors is:   15
 Calling FoFCou, ICntrl=  3107 FMM=F I1Cent=   0 AccDes= 0.00D+00.
 CoulSu:  requested number of processors reduced to:  15 ShMem   1 Linda.
 Calling FoFCou, ICntrl=  3107 FMM=F I1Cent=   0 AccDes= 0.00D+00.
 CoulSu:  requested number of processors reduced to:  15 ShMem   1 Linda.
 Calling FoFCou, ICntrl=  3107 FMM=F I1Cent=   0 AccDes= 0.00D+00.
 CoulSu:  requested number of processors reduced to:  15 ShMem   1 Linda.
 Calling FoFCou, ICntrl=  3107 FMM=F I1Cent=   0 AccDes= 0.00D+00.
 CoulSu:  requested number of processors reduced to:  15 ShMem   1 Linda.
 FoFDir/FoFCou used for L=0 through L=2.
 End of G2Drv Frequency-dependent properties file   721 does not exist.
 End of G2Drv Frequency-dependent properties file   722 does not exist.
          IDoAtm=111111111111
          Differentiating once with respect to electric field.
                with respect to dipole field.
          Differentiating once with respect to nuclear coordinates.
 PrRfSu:  requested number of processors reduced to:  15 ShMem   1 Linda.
 CalDSu:  requested number of processors reduced to:  19 ShMem   1 Linda.
          There are    39 degrees of freedom in the 1st order CPHF.  IDoFFX=5.
     36 vectors produced by pass  0 Test12= 6.25D-15 2.56D-09 XBig12= 1.29D+02 6.15D+00.
 AX will form    36 AO Fock derivatives at one time.
 PrRfSu:  requested number of processors reduced to:  15 ShMem   1 Linda.
 CalDSu:  requested number of processors reduced to:  20 ShMem   1 Linda.
     36 vectors produced by pass  1 Test12= 6.25D-15 2.56D-09 XBig12= 6.05D+01 2.10D+00.
 PrRfSu:  requested number of processors reduced to:  15 ShMem   1 Linda.
 CalDSu:  requested number of processors reduced to:  20 ShMem   1 Linda.
     36 vectors produced by pass  2 Test12= 6.25D-15 2.56D-09 XBig12= 2.34D-01 1.53D-01.
 PrRfSu:  requested number of processors reduced to:  15 ShMem   1 Linda.
 CalDSu:  requested number of processors reduced to:  20 ShMem   1 Linda.
     36 vectors produced by pass  3 Test12= 6.25D-15 2.56D-09 XBig12= 1.37D-03 1.14D-02.
 PrRfSu:  requested number of processors reduced to:  15 ShMem   1 Linda.
 CalDSu:  requested number of processors reduced to:  20 ShMem   1 Linda.
     36 vectors produced by pass  4 Test12= 6.25D-15 2.56D-09 XBig12= 3.58D-06 4.60D-04.
 PrRfSu:  requested number of processors reduced to:  15 ShMem   1 Linda.
 CalDSu:  requested number of processors reduced to:  20 ShMem   1 Linda.
     30 vectors produced by pass  5 Test12= 6.25D-15 2.56D-09 XBig12= 4.56D-09 9.99D-06.
 PrRfSu:  requested number of processors reduced to:  16 ShMem   1 Linda.
 CalDSu:  requested number of processors reduced to:  21 ShMem   1 Linda.
      6 vectors produced by pass  6 Test12= 6.25D-15 2.56D-09 XBig12= 4.29D-12 2.35D-07.
      3 vectors produced by pass  7 Test12= 6.25D-15 2.56D-09 XBig12= 2.98D-14 3.78D-08.
      1 vectors produced by pass  8 Test12= 6.25D-15 2.56D-09 XBig12= 2.05D-16 3.07D-09.
 Inverted reduced A of dimension   220 with in-core refinement.
 Isotropic polarizability for W=    0.000000       70.68 Bohr**3.
 End of Minotr Frequency-dependent properties file   721 does not exist.
 End of Minotr Frequency-dependent properties file   722 does not exist.
 PrsmSu:  requested number of processors reduced to:  10 ShMem   1 Linda.
 PrsmSu:  requested number of processors reduced to:  11 ShMem   1 Linda.
 Calling FoFJK, ICntrl=    100127 FMM=F ISym2X=0 I1Cent= 0 IOpClX= 0 NMat=1 NMatS=1 NMatT=0.
 CoulSu:  requested number of processors reduced to:  11 ShMem   1 Linda.
 -------------------------------------------------------------------
 Center     Atomic                   Forces (Hartrees/Bohr)
 Number     Number              X              Y              Z
 -------------------------------------------------------------------
      1        6          -0.003571187    0.000725464   -0.000290052
      2        8           0.000599383    0.000104153   -0.006451043
      3        6           0.003872324   -0.000432880    0.000426061
[...]
      1        6          -0.000077635    0.000168640   -0.002487175
      2        8           0.000060519   -0.000119464   -0.000002642
      3        6           0.000010833   -0.000048790   -0.000006289
      4        6          -0.000000756   -0.000005331    0.000003726
      5        1           0.000000381    0.000000834   -0.000000756
      6        1           0.000001613    0.000003303    0.000001234
      7        1          -0.000002070    0.000001078    0.000000327
      8        1          -0.000002313   -0.000000878   -0.000000063
      9        1          -0.000000752   -0.000000931    0.000001607
     10        1           0.000000087    0.000001065    0.000000129
     11        1           0.000000885   -0.000002757   -0.000000551
     12        8           0.000009207    0.000003230   -0.000009547
 -------------------------------------------------------------------
 Cartesian Forces:  Max     0.002487175 RMS     0.000416375
 -----------------------------------------------------------------------------------------------
                       Internal Coordinate Forces (Hartree/Bohr or radian)
  Cent   Atom   N1       Length/X         N2         Alpha/Y        N3         Beta/Z          J
 -----------------------------------------------------------------------------------------------
      1  C 
      2  O        1  -0.000003(     1)
      3  C        1   0.000020(     2)      2   0.000001(    12)
      4  C        1   0.000007(     3)      3  -0.000005(    13)      2   0.000000(    22)     0
      5  H        2   0.000000(     4)      1  -0.000002(    14)      3   0.000001(    23)     0
      6  H        1   0.000002(     5)      3  -0.000005(    15)      4  -0.000003(    24)     0
      7  H        3   0.000000(     6)      1  -0.000005(    16)      4  -0.000002(    25)     0
      8  H        3   0.000000(     7)      1  -0.000005(    17)      4   0.000002(    26)     0
      9  H        4   0.000000(     8)      1   0.000003(    18)      3   0.000003(    27)     0
     10  H        4   0.000000(     9)      1  -0.000002(    19)      3  -0.000001(    28)     0
     11  H        4   0.000000(    10)      1   0.000004(    20)      3  -0.000004(    29)     0
     12  O        3   0.000003(    11)      1   0.000035(    21)      4   0.000006(    30)     0
 -----------------------------------------------------------------------------------------------
 Internal  Forces:  Max     0.000034780 RMS     0.000007925

 GradGradGradGradGradGradGradGradGradGradGradGradGradGradGradGradGradGrad
 Berny optimization.
 Search for a saddle point.
 Step number   1 out of a maximum of    2
 All quantities printed in internal units (Hartrees-Bohrs-Radians)
 Swaping is turned off.
 Second derivative matrix not updated -- analytic derivatives used.
 ITU=  0
     Eigenvalues ---   -0.03491   0.00260   0.00334   0.02076   0.03310
     Eigenvalues ---    0.06143   0.08957   0.10808   0.12241   0.12642
     Eigenvalues ---    0.13438   0.15496   0.22020   0.22920   0.26372
     Eigenvalues ---    0.29543   0.30326   0.31348   0.31853   0.33149
     Eigenvalues ---    0.34408   0.34853   0.35150   0.35461   0.37345
     Eigenvalues ---    0.38160   0.40418   0.51032   0.51405   0.56580
 Eigenvectors required to have negative eigenvalues:
                          B1        D3        A10       A3        D5
   1                    0.63687  -0.48903  -0.39131   0.27068   0.26814
                          D9        D1        A6        A2        A5
   1                    0.14771   0.11962   0.07353   0.05616   0.05276
 Angle between quadratic step and forces=  87.01 degrees.
 Linear search not attempted -- option 19 set.
 Variable       Old X    -DE/DX   Delta X   Delta X   Delta X     New X
                                 (Linear)    (Quad)   (Total)
    B1        4.34059   0.00000   0.00000   0.00023   0.00023   4.34081
    B2        2.73715   0.00002   0.00000   0.00003   0.00003   2.73718
    B3        2.83029   0.00001   0.00000   0.00001   0.00001   2.83030
    B4        1.83091   0.00000   0.00000   0.00000   0.00000   1.83091
    B5        2.03559   0.00000   0.00000   0.00000   0.00000   2.03559
    B6        2.07851   0.00000   0.00000  -0.00001  -0.00001   2.07850
    B7        2.08065   0.00000   0.00000  -0.00001  -0.00001   2.08065
    B8        2.07129   0.00000   0.00000   0.00000   0.00000   2.07129
    B9        2.07537   0.00000   0.00000   0.00000   0.00000   2.07537
   B10        2.06745   0.00000   0.00000   0.00000   0.00000   2.06745
   B11        2.67125   0.00000   0.00000   0.00001   0.00001   2.67126
    A1        1.89507   0.00000   0.00000  -0.00001  -0.00001   1.89506
    A2        2.14215   0.00000   0.00000  -0.00003  -0.00003   2.14212
    A3        2.05320   0.00000   0.00000   0.00013   0.00013   2.05333
    A4        2.05684  -0.00001   0.00000   0.00000   0.00000   2.05684
    A5        2.05113   0.00000   0.00000  -0.00001  -0.00001   2.05112
    A6        2.04251   0.00000   0.00000  -0.00001  -0.00001   2.04249
    A7        1.92873   0.00000   0.00000   0.00000   0.00000   1.92873
    A8        1.93757   0.00000   0.00000   0.00001   0.00001   1.93758
    A9        1.87371   0.00000   0.00000  -0.00002  -0.00002   1.87369
   A10        1.31624   0.00003   0.00000  -0.00002  -0.00002   1.31622
    D1       -1.74710   0.00000   0.00000   0.00009   0.00009  -1.74700
    D2        0.69378   0.00000   0.00000   0.00027   0.00027   0.69404
    D3       -3.03574   0.00000   0.00000  -0.00022  -0.00022  -3.03596
    D4       -2.80359   0.00000   0.00000   0.00015   0.00015  -2.80344
    D5       -0.43344   0.00000   0.00000   0.00017   0.00017  -0.43327
    D6       -0.05884   0.00000   0.00000  -0.00055  -0.00055  -0.05939
    D7       -2.15209   0.00000   0.00000  -0.00056  -0.00056  -2.15266
    D8        2.03199   0.00000   0.00000  -0.00054  -0.00054   2.03145
    D9        1.52110   0.00001   0.00000   0.00016   0.00016   1.52126
         Item               Value     Threshold  Converged?
 Maximum Force            0.000035     0.000450     YES
 RMS     Force            0.000008     0.000300     YES
 Maximum Displacement     0.000565     0.001800     YES
 RMS     Displacement     0.000199     0.001200     YES
 Predicted change in Energy=-1.234938D-09
 Optimization completed.
    -- Stationary point found.
                       ----------------------------
                       !   Optimized Parameters   !
                       ! (Angstroms and Degrees)  !
 ----------------------                            ----------------------
 !      Name          Value   Derivative information (Atomic Units)     !
 ------------------------------------------------------------------------
 !       B1          2.2969   -DE/DX =    0.0                           !
 !       B2          1.4484   -DE/DX =    0.0                           !
 !       B3          1.4977   -DE/DX =    0.0                           !
 !       B4          0.9689   -DE/DX =    0.0                           !
 !       B5          1.0772   -DE/DX =    0.0                           !
 !       B6          1.0999   -DE/DX =    0.0                           !
 !       B7          1.101    -DE/DX =    0.0                           !
 !       B8          1.0961   -DE/DX =    0.0                           !
 !       B9          1.0982   -DE/DX =    0.0                           !
 !       B10         1.094    -DE/DX =    0.0                           !
 !       B11         1.4136   -DE/DX =    0.0                           !
 !       A1        108.5794   -DE/DX =    0.0                           !
 !       A2        122.7362   -DE/DX =    0.0                           !
 !       A3        117.6399   -DE/DX =    0.0                           !
 !       A4        117.8485   -DE/DX =    0.0                           !
 !       A5        117.5212   -DE/DX =    0.0                           !
 !       A6        117.027    -DE/DX =    0.0                           !
 !       A7        110.5081   -DE/DX =    0.0                           !
 !       A8        111.0143   -DE/DX =    0.0                           !
 !       A9        107.3557   -DE/DX =    0.0                           !
 !       A10        75.415    -DE/DX =    0.0                           !
 !       D1       -100.1013   -DE/DX =    0.0                           !
 !       D2         39.7505   -DE/DX =    0.0                           !
 !       D3       -173.9349   -DE/DX =    0.0                           !
 !       D4       -160.6337   -DE/DX =    0.0                           !
 !       D5        -24.8345   -DE/DX =    0.0                           !
 !       D6         -3.3714   -DE/DX =    0.0                           !
 !       D7       -123.3059   -DE/DX =    0.0                           !
 !       D8        116.4244   -DE/DX =    0.0                           !
 !       D9         87.1525   -DE/DX =    0.0                           !
 ------------------------------------------------------------------------
 GradGradGradGradGradGradGradGradGradGradGradGradGradGradGradGradGradGrad

 1\1\GINC-C47N09\Freq\RB3LYP\6-31++G(d,p)\C3H7O2(1-)\ROOT\13-Mar-2018\1
 \\#N Geom=AllCheck Guess=TCheck SCRF=Check GenChk RB3LYP/6-31++G(d,p) 
 Freq\\OH-BACK-MID\\-1,1\C\O,1,B1\C,1,B2,2,A1\C,1,B3,3,A2,2,D1,0\H,2,B4
 ,1,A3,3,D2,0\H,1,B5,3,A4,4,D3,0\H,3,B6,1,A5,4,D4,0\H,3,B7,1,A6,4,D5,0\
 H,4,B8,1,A7,3,D6,0\H,4,B9,1,A8,3,D7,0\H,4,B10,1,A9,3,D8,0\O,3,B11,1,A1
 0,4,D9,0\\B1=2.29693941\B2=1.44843584\B3=1.49772638\B4=0.96887344\B5=1
 .07718796\B6=1.09989817\B7=1.1010345\B8=1.09607853\B9=1.09823841\B10=1
 .09404766\B11=1.41356598\A1=108.57943363\A2=122.73624253\A3=117.639929
 19\A4=117.84848405\A5=117.52117884\A6=117.02698115\A7=110.5080519\A8=1
 11.01432225\A9=107.35566677\A10=75.41502244\D1=-100.10130937\D2=39.750
 53295\D3=-173.93490296\D4=-160.63366147\D5=-24.83454186\D6=-3.37142486
 \D7=-123.30588399\D8=116.42442226\D9=87.15249617\\Version=EM64L-G09Rev
 B.01\HF=-268.9372287\RMSD=1.978e-09\RMSF=4.164e-04\ZeroPoint=0.0943252
 \Thermal=0.1012464\Dipole=0.3577866,-0.2365141,-0.9532647\DipoleDeriv=
 0.2299791,0.1412315,-0.0607368,0.1737493,0.2502066,-0.0869487,-0.50603
 92,-0.0777849,2.2312683,-0.7521309,0.1842787,0.0417683,0.1653508,-0.84
 20712,0.0039641,0.1893131,0.0239515,-1.5400622,0.5405733,0.0018814,-0.
 2025916,-0.0674333,0.4429728,0.045063,0.3975844,-0.0065524,0.2379156,0
 .1179016,-0.1297419,0.081244,-0.0906969,0.0307508,0.0380167,0.0917713,
 0.0363117,0.0050441,0.0342365,-0.2079787,-0.1338359,-0.1856277,0.11075
 83,-0.1238522,-0.0975512,-0.0982982,0.0766799,0.005966,0.0008858,0.011
 7539,0.0067161,-0.0477377,0.0149971,0.0427643,0.0206694,-0.0358768,-0.
 1621668,-0.1200851,-0.0559844,-0.1886829,-0.1602811,-0.0595423,-0.1030
 369,-0.0621416,0.0166024,-0.112574,0.0957653,-0.028595,0.1896199,-0.20
 20077,0.0094294,-0.0714966,0.0317646,0.0347103,-0.0260887,0.1293887,0.
 050485,0.0433075,-0.1214602,-0.0658338,0.012094,-0.0995059,0.020827,-0
 .1956452,-0.0335438,-0.1247301,0.0027274,0.0126972,0.0204176,-0.164037
 7,-0.0341685,-0.0327003,0.0544496,0.0020357,0.0241546,-0.0104848,0.069
 7408,0.0367651,0.0951851,0.0970606,0.0528017,-0.7345004,-0.0641177,0.3
 97068,-0.0385454,-0.5435685,0.1675241,0.1134495,0.1686936,-2.06721\Pol
 ar=63.6554834,1.8149423,57.6628365,-5.4627211,0.3390525,86.543869\PG=C
 01 [X(C3H7O2)]\NImag=1\\0.61623849,-0.04053849,0.63642517,-0.12300281,
 0.07167875,0.03252886,-0.01413340,-0.00060174,0.00808205,0.24962499,-0
 .00102543,-0.01036595,0.01022676,0.20495535,0.17460089,0.00750269,0.00
 578955,0.02186271,0.15953194,0.13045092,0.14235949,-0.31964968,-0.0030
 4090,0.13761981,0.00240722,0.00001313,-0.01209527,0.64319611,0.0043834
 3,-0.07073109,-0.01421218,-0.00005708,-0.00166178,0.00133048,0.0008689
 6,0.58829439,0.06964859,-0.01324494,0.00700114,-0.00142499,-0.00070353
 ,-0.00571537,0.01717514,0.03394395,0.30891502,-0.12557048,-0.06667900,
 0.00819175,-0.00320467,-0.00371497,-0.00251626,-0.01447306,-0.02515621
 ,0.00183403,0.53363742,-0.06893215,-0.19439474,-0.00240060,-0.00332903
 ,-0.00227031,-0.00198265,-0.00049644,0.00409169,0.00247572,-0.03587404
 ,0.51468707,-0.01058404,-0.00963051,-0.05038338,-0.00433328,-0.0047576
 5,-0.00775206,-0.00033153,-0.00363519,-0.00796079,-0.00196086,0.016985
 13,0.56342490,-0.00030141,0.00050073,-0.00400989,-0.24010604,-0.198704
 44,-0.15954336,0.00052267,-0.00008365,0.00074680,0.00069287,-0.0005515
 7,0.00076350,0.23945275,0.00049829,-0.00152128,-0.00231570,-0.19823304
 ,-0.16509711,-0.13224723,-0.00023269,0.00012708,-0.00015932,-0.0013186
 5,-0.00026049,-0.00043033,0.19768508,0.16563412,-0.00311365,-0.0014613
 8,0.01176554,-0.15691213,-0.13005590,-0.11733976,-0.00145329,-0.000552
 26,-0.00207482,-0.00239225,-0.00194908,0.00019118,0.16103698,0.1336631
 9,0.11621835,-0.10558657,0.11527625,0.03503650,-0.00019914,-0.00122342
 ,-0.00049639,-0.01155531,0.02617435,0.00677427,0.00838297,-0.01582485,
 -0.00372418,-0.00016711,0.00046596,-0.00074517,0.11096187,0.11955970,-
 0.30498182,-0.06150560,-0.00014589,0.00175870,0.00007083,-0.00337724,0
 .00175349,0.00341045,0.01146846,-0.01510571,-0.00488717,-0.00051844,0.
 00005359,0.00013844,-0.11889974,0.31099227,0.02335798,-0.05654027,-0.0
 2272117,-0.00167619,0.00047179,-0.01104836,0.00174127,0.00419847,-0.00
 397988,-0.00167640,0.00117672,0.00388313,-0.00025190,0.00113614,-0.001
 85020,-0.03562082,0.06120984,0.04656054,-0.01151528,-0.02162947,-0.009
 36181,0.00113934,0.00091368,0.00089549,-0.12065262,-0.10379731,-0.0240
 0369,-0.00269238,0.00220910,-0.00151668,-0.00003488,0.00002331,0.00091
 552,0.00102559,-0.00003872,0.00056145,0.13782707,0.00303744,-0.0011508
 6,-0.00276828,0.00066629,0.00044448,0.00065014,-0.10460629,-0.21078735
 ,-0.04095464,-0.00031981,0.00041664,-0.00039547,-0.00004816,0.00020634
 ,0.00059722,-0.00011197,0.00088581,-0.00034985,0.11632961,0.21739872,0
 .00736771,0.01821771,0.00049971,-0.00046779,-0.00028673,0.00113707,-0.
 02788730,-0.04628463,-0.05701939,0.00292147,-0.00101549,0.00127244,0.0
 0008470,0.00003891,-0.00018574,-0.00103543,-0.00065200,-0.00004522,0.0
 4345013,0.05171243,0.06321417,-0.01095087,0.02415876,-0.00369903,0.000
 70476,-0.00064834,0.00127918,-0.10261104,0.09463044,0.00179366,0.00132
 055,0.00154426,0.00109724,-0.00010069,0.00001680,0.00022342,-0.0028065
 8,-0.00048033,-0.00153072,0.00903089,-0.01484929,0.00084874,0.11752725
 ,-0.00198374,-0.00040862,0.00347416,-0.00049769,0.00085322,-0.00122089
 ,0.09591761,-0.23758830,-0.00072723,-0.00082374,0.00055226,-0.00007697
 ,0.00012768,-0.00022378,0.00006356,-0.00051130,0.00066605,0.00055755,0
 .01166862,-0.02135663,-0.00105941,-0.11224061,0.25190845,0.00725076,-0
 .01810011,-0.00322425,-0.00042576,0.00053632,0.00059881,-0.00083727,0.
 00450311,-0.04498516,-0.00145954,0.00012654,0.00027224,-0.00000442,-0.
 00008613,0.00013726,0.00339846,0.00023967,0.00088829,0.00381440,-0.005
 36431,0.00370928,0.01241454,-0.00990660,0.04766600,0.00905253,-0.01551
 853,-0.00631775,0.00018680,0.00002318,0.00003992,0.00144215,-0.0018113
 1,-0.00024251,-0.11628991,0.10505165,0.05042312,0.00010512,0.00012602,
 -0.00008384,-0.00144985,-0.00291430,0.00042077,0.00006250,0.00023251,-
 0.00005862,-0.00006556,0.00048749,-0.00031446,0.12461581,0.01579326,-0
 .02536861,-0.01169614,-0.00070436,0.00040457,-0.00039336,0.00202724,0.
 00054126,-0.00115123,0.10058553,-0.19884153,-0.07430254,0.00016011,-0.
 00014886,-0.00018745,-0.00374120,-0.00287972,0.00080883,-0.00003818,0.
 00055255,-0.00029453,-0.00120692,0.00064788,0.00037545,-0.11095106,0.2
 2028454,0.00119458,0.00297626,-0.00103293,-0.00131184,-0.00037402,-0.0
 0080728,0.00046329,-0.00015241,0.00065844,0.04972805,-0.07792299,-0.08
 268224,-0.00050465,-0.00012891,-0.00049083,0.00041199,0.00054732,0.000
 66915,-0.00025114,0.00009340,-0.00001442,-0.00042385,-0.00002427,0.000
 05017,-0.05534015,0.08459485,0.08366206,-0.01880124,0.00244399,-0.0077
 8634,-0.00010116,-0.00045375,-0.00018504,-0.00054887,-0.00337948,-0.00
 344554,-0.21999752,0.02812880,-0.11251761,0.00019137,0.00006715,-0.000
 06652,0.00100100,-0.00037769,0.00043753,-0.00082972,-0.00036454,0.0011
 6536,0.00056114,-0.00003929,-0.00020001,-0.01355134,0.00190127,-0.0086
 4965,0.24231071,-0.02755314,0.00409066,-0.01136915,-0.00044220,-0.0002
 7202,-0.00078406,-0.00073747,-0.00381711,-0.00263668,0.02910309,-0.051
 43542,0.01667399,0.00018932,0.00014694,-0.00040844,0.00091523,0.000996
 26,0.00009855,-0.00124219,0.00008644,0.00074746,-0.00024986,0.00019205
 ,-0.00002268,0.02004294,-0.00297893,0.01448017,-0.02771825,0.05399138,
 0.00432505,0.00208527,-0.00109422,-0.00131863,-0.00180694,-0.00079761,
 0.00204213,0.00077531,0.00006570,-0.11513586,0.01552761,-0.11852689,0.
 00020961,-0.00075645,-0.00099705,-0.00033632,-0.00038004,0.00003148,0.
 00025113,0.00026239,-0.00012426,-0.00024259,0.00012598,0.00001834,0.01
 113301,-0.00076029,0.00649802,0.12672880,-0.01873495,0.12491619,-0.004
 06844,-0.00322160,0.01929928,-0.00107896,-0.00073406,-0.00153563,-0.00
 088429,-0.00014736,0.00109525,-0.05899839,-0.00708415,0.05986188,0.000
 38407,0.00118427,0.00000582,0.00019958,-0.00011826,-0.00032078,-0.0000
 0010,-0.00010450,0.00011785,-0.00010743,-0.00003246,0.00003788,-0.0043
 7692,-0.00399364,0.01556599,0.00727920,0.00501240,-0.02683728,0.063182
 23,-0.00486497,-0.00331132,0.02635481,-0.00122447,-0.00223252,-0.00146
 420,-0.00006807,-0.00047945,0.00161825,-0.00742727,-0.05444804,0.04567
 602,0.00128028,0.00092877,-0.00043532,0.00020941,0.00011265,-0.0009899
 2,-0.00006529,-0.00011981,-0.00005894,-0.00020321,0.00019678,-0.000256
 40,0.00497066,0.00560359,-0.02434287,-0.00086672,-0.00186096,0.0044675
 5,0.01185325,0.05788764,0.00412180,0.00369362,-0.00121735,-0.00253893,
 -0.00265075,-0.00103146,-0.00030175,0.00029734,-0.00033140,0.06127605,
 0.04619207,-0.29238180,0.00024687,0.00011915,-0.00289398,0.00022627,-0
 .00005130,0.00021111,-0.00005685,-0.00011393,0.00005925,0.00005737,0.0
 0003358,0.00002963,0.00115436,0.00147559,-0.00654126,0.00274732,0.0019
 0036,-0.01189735,-0.06619148,-0.05093069,0.31511960,-0.01471367,0.0088
 5001,-0.05405175,0.00476028,0.00059906,0.00712274,-0.07719328,0.008375
 21,-0.06995101,-0.00280739,-0.00484158,0.02282246,-0.00063873,-0.00028
 250,0.00258513,0.00019355,-0.00415755,0.01455781,-0.01336040,0.0001387
 2,-0.02650681,-0.01250241,0.00792742,-0.02367457,0.00026869,0.00016797
 ,-0.00088263,0.00248644,0.00268013,-0.00081904,-0.00153057,-0.00359360
 ,-0.00074102,0.11503748,0.00162581,-0.02828154,-0.00546682,-0.00038614
 ,0.00383783,-0.00019954,0.01373217,-0.06974283,0.01812921,0.00015661,-
 0.00299142,0.01878069,-0.00003693,0.00015467,0.00058744,-0.00272873,0.
 00574843,-0.01177784,-0.00433315,0.01342366,-0.02106477,0.00952831,0.0
 0456065,0.02795513,0.00026075,0.00218326,0.00025346,0.00065850,0.00086
 070,-0.00080542,-0.00261391,-0.00227734,0.00003495,-0.01586329,0.07252
 392,0.01193134,-0.00546394,0.00601533,0.00279555,-0.00105027,-0.021466
 18,-0.11613522,0.01978802,-0.19457350,0.00118982,0.00278701,-0.0093567
 5,0.00122576,0.00116668,-0.00247994,-0.00388917,0.00185957,-0.01259887
 ,-0.01469795,-0.00336909,-0.01250287,-0.01181793,0.00876056,-0.0051606
 1,-0.00081384,0.00153081,0.00003111,0.00177172,0.00005542,0.00190765,-
 0.00109878,0.00036171,0.00087500,0.12953869,-0.02642649,0.24930964\\0.
 00007763,-0.00016864,0.00248718,-0.00006052,0.00011946,0.00000264,-0.0
 0001083,0.00004879,0.00000629,0.00000076,0.00000533,-0.00000373,-0.000
 00038,-0.00000083,0.00000076,-0.00000161,-0.00000330,-0.00000123,0.000
 00207,-0.00000108,-0.00000033,0.00000231,0.00000088,0.00000006,0.00000
 075,0.00000093,-0.00000161,-0.00000009,-0.00000107,-0.00000013,-0.0000
 0088,0.00000276,0.00000055,-0.00000921,-0.00000323,0.00000955\\\@


 IF IT HAPPENS, IT MUST BE POSSIBLE.

 -- THE UNNAMED LAW FROM PAUL DICKSON'S 
    "THE OFFICIAL RULES"
 Job cpu time:  0 days  0 hours  6 minutes 32.9 seconds.
 File lengths (MBytes):  RWF=   1280 Int=      0 D2E=      0 Chk=     32 Scr=     32
 Normal termination of Gaussian 09 at Tue Mar 13 17:11:25 2018.
