 Entering Gaussian System, Link 0=g09
 Input=OH-term-field-3.gjf
 Output=OH-term-field-3.log
 Initial command:
 /share/home/zxchen/g09/l1.exe /scratch/zxchen/Gau-959.inp -scrdir=/scratch/zxchen/
 Entering Link 1 = /share/home/zxchen/g09/l1.exe PID=       960.
  
 Copyright (c) 1988,1990,1992,1993,1995,1998,2003,2009,2010,
            Gaussian, Inc.  All Rights Reserved.
  
 This is part of the Gaussian(R) 09 program.  It is based on
 the Gaussian(R) 03 system (copyright 2003, Gaussian, Inc.),
 the Gaussian(R) 98 system (copyright 1998, Gaussian, Inc.),
 the Gaussian(R) 94 system (copyright 1995, Gaussian, Inc.),
 the Gaussian 92(TM) system (copyright 1992, Gaussian, Inc.),
 the Gaussian 90(TM) system (copyright 1990, Gaussian, Inc.),
 the Gaussian 88(TM) system (copyright 1988, Gaussian, Inc.),
 the Gaussian 86(TM) system (copyright 1986, Carnegie Mellon
 University), and the Gaussian 82(TM) system (copyright 1983,
 Carnegie Mellon University). Gaussian is a federally registered
 trademark of Gaussian, Inc.
  
 This software contains proprietary and confidential information,
 including trade secrets, belonging to Gaussian, Inc.
  
 This software is provided under written license and may be
 used, copied, transmitted, or stored only in accord with that
 written license.
  
 The following legend is applicable only to US Government
 contracts under FAR:
  
                    RESTRICTED RIGHTS LEGEND
  
 Use, reproduction and disclosure by the US Government is
 subject to restrictions as set forth in subparagraphs (a)
 and (c) of the Commercial Computer Software - Restricted
 Rights clause in FAR 52.227-19.
  
 Gaussian, Inc.
 340 Quinnipiac St., Bldg. 40, Wallingford CT 06492
  
  
 ---------------------------------------------------------------
 Warning -- This program may not be used in any manner that
 competes with the business of Gaussian, Inc. or will provide
 assistance to any competitor of Gaussian, Inc.  The licensee
 of this program is prohibited from giving any competitor of
 Gaussian, Inc. access to this program.  By using this program,
 the user acknowledges that Gaussian, Inc. is engaged in the
 business of creating and licensing software in the field of
 computational chemistry and represents and warrants to the
 licensee that it is not a competitor of Gaussian, Inc. and that
 it will not use this program in any manner prohibited above.
 ---------------------------------------------------------------
  

 Cite this work as:
 Gaussian 09, Revision B.01,
 M. J. Frisch, G. W. Trucks, H. B. Schlegel, G. E. Scuseria, 
 M. A. Robb, J. R. Cheeseman, G. Scalmani, V. Barone, B. Mennucci, 
 G. A. Petersson, H. Nakatsuji, M. Caricato, X. Li, H. P. Hratchian, 
 A. F. Izmaylov, J. Bloino, G. Zheng, J. L. Sonnenberg, M. Hada, 
 M. Ehara, K. Toyota, R. Fukuda, J. Hasegawa, M. Ishida, T. Nakajima, 
 Y. Honda, O. Kitao, H. Nakai, T. Vreven, J. A. Montgomery, Jr., 
 J. E. Peralta, F. Ogliaro, M. Bearpark, J. J. Heyd, E. Brothers, 
 K. N. Kudin, V. N. Staroverov, T. Keith, R. Kobayashi, J. Normand, 
 K. Raghavachari, A. Rendell, J. C. Burant, S. S. Iyengar, J. Tomasi, 
 M. Cossi, N. Rega, J. M. Millam, M. Klene, J. E. Knox, J. B. Cross, 
 V. Bakken, C. Adamo, J. Jaramillo, R. Gomperts, R. E. Stratmann, 
 O. Yazyev, A. J. Austin, R. Cammi, C. Pomelli, J. W. Ochterski, 
 R. L. Martin, K. Morokuma, V. G. Zakrzewski, G. A. Voth, 
 P. Salvador, J. J. Dannenberg, S. Dapprich, A. D. Daniels, 
 O. Farkas, J. B. Foresman, J. V. Ortiz, J. Cioslowski, 
 and D. J. Fox, Gaussian, Inc., Wallingford CT, 2010.
 
 ******************************************
 Gaussian 09:  EM64L-G09RevB.01 12-Aug-2010
                27-Apr-2018 
 ******************************************
 %chk=OH-term-field-3.chk
 %nprocshared=24
 Will use up to   24 processors via shared memory.
 ----------------------------------------------------------------------
 # opt=(maxcycle=300,calcfc,tight,ts,noeigen,z-matrix) freq b3lyp/6-31+
 +g(d,p) field=z-25
 ----------------------------------------------------------------------
 1/5=1,6=300,7=10,10=4,11=1,14=-1,18=40,26=3,38=1/1,3;
 2/12=2,17=6,18=5,29=3,40=1/2;
 3/5=1,6=6,7=1111,11=2,14=3,15=-25,16=1,25=1,30=1,71=2,74=-5/1,2,3;
 4//1;
 5/5=2,38=5/2;
 8/6=4,10=90,11=11/1;
 11/6=1,8=1,9=11,15=111,16=1/1,2,10;
 10/6=1,7=6,13=1/2;
 6/7=2,8=2,9=2,10=2,28=1/1;
 7/10=1,18=20,25=1/1,2,3,16;
 1/5=1,6=300,7=10,10=4,11=1,14=-1,18=40/3(2);
 2/29=3/2;
 99//99;
 2/29=3/2;
 3/5=1,6=6,7=1111,11=2,14=3,15=-25,16=1,25=1,30=1,71=1,74=-5/1,2,3;
 4/5=5,16=3/1;
 5/5=2,38=5/2;
 7//1,2,3,16;
 1/5=1,6=300,7=10,11=1,14=-1,18=40/3(-5);
 2/29=3/2;
 6/7=2,8=2,9=2,10=2,19=2,28=1/1;
 99/9=1/99;
 -------------------
 Title Card Required
 -------------------
 Symbolic Z-matrix:
 Charge = -1 Multiplicity = 1
 C
 O                    1    B1
 H                    1    B2       2    A1
 H                    2    B3       1    A2       3    D1       0
 H                    1    B4       2    A3       4    D2       0
 H                    1    B5       2    A4       4    D3       0
 H                    1    B6       2    A5       4    D4       0
 H                    1    B7       2    A6       4    D5       0
 H                    1    B8       2    A7       4    D6       0
 C                    1    B9       2    A8       4    D7       0
 C                    1    B10      2    A9       10   D8       0
 O                    11   B11      1    A10      2    D9       0
       Variables:
  B1                    2.244                    
  B2                    1.07674                  
  B3                    0.96904                  
  B4                    1.07672                  
  B5                    2.17383                  
  B6                    3.45871                  
  B7                    3.00135                  
  B8                    2.7327                   
  B9                    2.56775                  
  B10                   1.45177                  
  B11                   1.41198                  
  A1                   76.26009                  
  A2                  109.59969                  
  A3                   85.11616                  
  A4                  105.16516                  
  A5                  108.54115                  
  A6                   77.15388                  
  A7                   96.78615                  
  A8                   97.20774                  
  A9                  113.90943                  
  A10                  74.01838                  
  D1                 -175.82108                  
  D2                   62.1911                   
  D3                  -32.22903                  
  D4                  -81.20447                  
  D5                  -80.2471                   
  D6                 -110.59868                  
  D7                  -86.64731                  
  D8                   27.15023                  
  D9                 -174.22365                  
 

 GradGradGradGradGradGradGradGradGradGradGradGradGradGradGradGradGradGrad
 Berny optimization.
 Initialization pass.
                       ----------------------------
                       !    Initial Parameters    !
                       ! (Angstroms and Degrees)  !
 ----------------------                            ----------------------
 !      Name          Value   Derivative information (Atomic Units)     !
 ------------------------------------------------------------------------
 !       B1          2.244    calculate D2E/DX2 analytically            !
 !       B2          1.0767   calculate D2E/DX2 analytically            !
 !       B3          0.969    calculate D2E/DX2 analytically            !
 !       B4          1.0767   calculate D2E/DX2 analytically            !
 !       B5          2.1738   calculate D2E/DX2 analytically            !
 !       B6          3.4587   calculate D2E/DX2 analytically            !
 !       B7          3.0014   calculate D2E/DX2 analytically            !
 !       B8          2.7327   calculate D2E/DX2 analytically            !
 !       B9          2.5678   calculate D2E/DX2 analytically            !
 !       B10         1.4518   calculate D2E/DX2 analytically            !
 !       B11         1.412    calculate D2E/DX2 analytically            !
 !       A1         76.2601   calculate D2E/DX2 analytically            !
 !       A2        109.5997   calculate D2E/DX2 analytically            !
 !       A3         85.1162   calculate D2E/DX2 analytically            !
 !       A4        105.1652   calculate D2E/DX2 analytically            !
 !       A5        108.5412   calculate D2E/DX2 analytically            !
 !       A6         77.1539   calculate D2E/DX2 analytically            !
 !       A7         96.7861   calculate D2E/DX2 analytically            !
 !       A8         97.2077   calculate D2E/DX2 analytically            !
 !       A9        113.9094   calculate D2E/DX2 analytically            !
 !       A10        74.0184   calculate D2E/DX2 analytically            !
 !       D1       -175.8211   calculate D2E/DX2 analytically            !
 !       D2         62.1911   calculate D2E/DX2 analytically            !
 !       D3        -32.229    calculate D2E/DX2 analytically            !
 !       D4        -81.2045   calculate D2E/DX2 analytically            !
 !       D5        -80.2471   calculate D2E/DX2 analytically            !
 !       D6       -110.5987   calculate D2E/DX2 analytically            !
 !       D7        -86.6473   calculate D2E/DX2 analytically            !
 !       D8         27.1502   calculate D2E/DX2 analytically            !
 !       D9       -174.2237   calculate D2E/DX2 analytically            !
 ------------------------------------------------------------------------
 Trust Radius=3.00D-01 FncErr=1.00D-07 GrdErr=1.00D-06
 Number of steps in this run=    100 maximum allowed number of steps=    100.
 Search for a saddle point of order  1.
 GradGradGradGradGradGradGradGradGradGradGradGradGradGradGradGradGradGrad

 ---------------------------------------------------------------------------------------------------
                            Z-MATRIX (ANGSTROMS AND DEGREES)
   CD    Cent   Atom    N1       Length/X        N2       Alpha/Y        N3        Beta/Z          J
 ---------------------------------------------------------------------------------------------------
      1      1  C 
      2      2  O        1   2.244001(     1)
      3      3  H        1   1.076738(     2)      2   76.260(    12)
      4      4  H        2   0.969036(     3)      1  109.600(    13)      3 -175.821(    22)      0
      5      5  H        1   1.076716(     4)      2   85.116(    14)      4   62.191(    23)      0
      6      6  H        1   2.173830(     5)      2  105.165(    15)      4  -32.229(    24)      0
      7      7  H        1   3.458714(     6)      2  108.541(    16)      4  -81.204(    25)      0
      8      8  H        1   3.001352(     7)      2   77.154(    17)      4  -80.247(    26)      0
      9      9  H        1   2.732704(     8)      2   96.786(    18)      4 -110.599(    27)      0
     10     10  C        1   2.567753(     9)      2   97.208(    19)      4  -86.647(    28)      0
     11     11  C        1   1.451768(    10)      2  113.909(    20)     10   27.150(    29)      0
     12     12  O       11   1.411980(    11)      1   74.018(    21)      2 -174.224(    30)      0
 ---------------------------------------------------------------------------------------------------
                         Z-Matrix orientation:                         
 ---------------------------------------------------------------------
 Center     Atomic      Atomic             Coordinates (Angstroms)
 Number     Number       Type             X           Y           Z
 ---------------------------------------------------------------------
      1          6           0        0.000000    0.000000    0.000000
      2          8           0        0.000000    0.000000    2.244001
      3          1           0        1.045926    0.000000    0.255741
      4          1           0       -0.910463   -0.066523    2.569061
      5          1           0       -0.568308    0.909913    0.091667
      6          1           0       -1.688597   -1.245303   -0.568679
      7          1           0       -0.263935   -3.268552   -1.099821
      8          1           0       -0.284228   -2.912394    0.667301
      9          1           0        1.137245   -2.463753   -0.322907
     10          6           0        0.036734   -2.547197   -0.322169
     11          6           0       -0.588537   -1.189559   -0.588390
     12          8           0       -0.065765   -0.441005   -1.665453
 ---------------------------------------------------------------------
                    Distance matrix (angstroms):
                    1          2          3          4          5
     1  C    0.000000
     2  O    2.244001   0.000000
     3  H    1.076738   2.246584   0.000000
     4  H    2.726434   0.969036   3.030401   0.000000
     5  H    1.076716   2.404882   1.860272   2.684767   0.000000
     6  H    2.173830   3.509032   3.115777   3.440992   2.517153
     7  H    3.458714   4.683401   3.773158   4.912401   4.355670
     8  H    3.001352   3.323975   3.228116   3.479632   3.875834
     9  H    2.732704   3.735294   2.532440   4.278235   3.802946
    10  C    2.567753   3.615908   2.800118   3.925574   3.533970
    11  C    1.451768   3.127917   2.190680   3.366651   2.206959
    12  O    1.724106   3.934798   2.263035   4.334150   2.272663
                    6          7          8          9         10
     6  H    0.000000
     7  H    2.530872   0.000000
     8  H    2.505812   1.802771   0.000000
     9  H    3.087136   1.792932   1.789518   0.000000
    10  C    2.175423   1.102497   1.102468   1.103670   0.000000
    11  C    1.101648   2.165442   2.153491   2.161567   1.518228
    12  O    2.117403   2.890369   3.405471   2.709460   2.500192
                   11         12
    11  C    0.000000
    12  O    1.411980   0.000000
 Stoichiometry    C3H7O2(1-)
 Framework group  C1[X(C3H7O2)]
 Deg. of freedom    30
 Full point group                 C1      NOp   1
 Largest Abelian subgroup         C1      NOp   1
 Largest concise Abelian subgroup C1      NOp   1
                         Standard orientation:                         
 ---------------------------------------------------------------------
 Center     Atomic      Atomic             Coordinates (Angstroms)
 Number     Number       Type             X           Y           Z
 ---------------------------------------------------------------------
      1          6           0       -0.372994   -0.765020   -0.147118
      2          8           0       -2.372447    0.251629   -0.082674
      3          1           0       -0.618909   -0.618382   -1.185091
      4          1           0       -2.616198    0.431382    0.837818
      5          1           0       -0.857634   -1.550942    0.406749
      6          1           0        0.727753    0.037219    1.547079
      7          1           0        2.094248    1.641213    0.145221
      8          1           0        0.358489    2.123878    0.209697
      9          1           0        1.012744    1.317347   -1.247641
     10          6           0        1.068925    1.359650   -0.146214
     11          6           0        0.701051    0.010988    0.446067
     12          8           0        1.312149   -1.128557   -0.121106
 ---------------------------------------------------------------------
 Rotational constants (GHZ):      7.0578643      3.1011028      2.3455835
 Standard basis: 6-31++G(d,p) (6D, 7F)
 The following finite field(s) will be applied:
 An electric field of              0.0000  0.0000 -0.0025
 There are   137 symmetry adapted basis functions of A   symmetry.
 Integral buffers will be    131072 words long.
 Raffenetti 2 integral format.
 Two-electron integral symmetry is turned on.
   137 basis functions,   216 primitive gaussians,   137 cartesian basis functions
    21 alpha electrons       21 beta electrons
       nuclear repulsion energy       174.2329355078 Hartrees.
 NAtoms=   12 NActive=   12 NUniq=   12 SFac= 1.00D+00 NAtFMM=   50 NAOKFM=F Big=F
 One-electron integrals computed using PRISM.
 PrsmSu:  requested number of processors reduced to:  10 ShMem   1 Linda.
 NBasis=   137 RedAO= T  NBF=   137
 NBsUse=   137 1.00D-06 NBFU=   137
 The nuclear repulsion energy is now       174.2329355078 hartrees.
 Harris functional with IExCor=  402 diagonalized for initial guess.
 ExpMin= 3.60D-02 ExpMax= 5.48D+03 ExpMxC= 8.25D+02 IAcc=3 IRadAn=         0 AccDes= 0.00D+00
 HarFok:  IExCor=  402 AccDes= 0.00D+00 IRadAn=         0 IDoV= 1
 ScaDFX=  1.000000  1.000000  1.000000  1.000000
 FoFCou: FMM=F IPFlag=           0 FMFlag=      100000 FMFlg1=           0
         NFxFlg=           0 DoJE=T BraDBF=F KetDBF=T FulRan=T
         Omega=  0.000000  0.000000  1.000000  0.000000  0.000000 ICntrl=     500 IOpCl=  0
         NMat0=    1 NMatS0=    1 NMatT0=    0 NMatD0=    1 NMtDS0=    0 NMtDT0=    0
         I1Cent=           4 NGrid=           0.
 Petite list used in FoFCou.
 Initial guess orbital symmetries:
       Occupied  (A) (A) (A) (A) (A) (A) (A) (A) (A) (A) (A) (A)
                 (A) (A) (A) (A) (A) (A) (A) (A) (A)
       Virtual   (A) (A) (A) (A) (A) (A) (A) (A) (A) (A) (A) (A)
                 (A) (A) (A) (A) (A) (A) (A) (A) (A) (A) (A) (A)
                 (A) (A) (A) (A) (A) (A) (A) (A) (A) (A) (A) (A)
                 (A) (A) (A) (A) (A) (A) (A) (A) (A) (A) (A) (A)
                 (A) (A) (A) (A) (A) (A) (A) (A) (A) (A) (A) (A)
                 (A) (A) (A) (A) (A) (A) (A) (A) (A) (A) (A) (A)
                 (A) (A) (A) (A) (A) (A) (A) (A) (A) (A) (A) (A)
                 (A) (A) (A) (A) (A) (A) (A) (A) (A) (A) (A) (A)
                 (A) (A) (A) (A) (A) (A) (A) (A) (A) (A) (A) (A)
                 (A) (A) (A) (A) (A) (A) (A) (A)
 The electronic state of the initial guess is 1-A.
 Requested convergence on RMS density matrix=1.00D-08 within 128 cycles.
 Requested convergence on MAX density matrix=1.00D-06.
 Requested convergence on             energy=1.00D-06.
 No special actions if energy rises.
 SCF Done:  E(RB3LYP) =  -268.945523608     A.U. after   15 cycles
             Convg  =    0.3047D-08             -V/T =  2.0096
 Range of M.O.s used for correlation:     1   137
 NBasis=   137 NAE=    21 NBE=    21 NFC=     0 NFV=     0
 NROrb=    137 NOA=    21 NOB=    21 NVA=   116 NVB=   116

 **** Warning!!: The largest alpha MO coefficient is  0.32522381D+02

 PrsmSu:  requested number of processors reduced to:  10 ShMem   1 Linda.
 PrsmSu:  requested number of processors reduced to:  18 ShMem   1 Linda.
 Symmetrizing basis deriv contribution to polar:
 IMax=3 JMax=2 DiffMx= 0.00D+00
 G2DrvN: will do     4 centers at a time, making    4 passes doing MaxLOS=2.
 Estimated number of processors is:   15
 Calling FoFCou, ICntrl=  3107 FMM=F I1Cent=   0 AccDes= 0.00D+00.
 CoulSu:  requested number of processors reduced to:  15 ShMem   1 Linda.
 Calling FoFCou, ICntrl=  3107 FMM=F I1Cent=   0 AccDes= 0.00D+00.
 CoulSu:  requested number of processors reduced to:  15 ShMem   1 Linda.
 Calling FoFCou, ICntrl=  3107 FMM=F I1Cent=   0 AccDes= 0.00D+00.
 CoulSu:  requested number of processors reduced to:  15 ShMem   1 Linda.
 Calling FoFCou, ICntrl=  3107 FMM=F I1Cent=   0 AccDes= 0.00D+00.
 CoulSu:  requested number of processors reduced to:  15 ShMem   1 Linda.
 FoFDir/FoFCou used for L=0 through L=2.
 End of G2Drv Frequency-dependent properties file   721 does not exist.
 End of G2Drv Frequency-dependent properties file   722 does not exist.
          IDoAtm=111111111111
          Differentiating once with respect to nuclear coordinates.
 PrRfSu:  requested number of processors reduced to:  15 ShMem   1 Linda.
 CalDSu:  requested number of processors reduced to:  19 ShMem   1 Linda.
          There are    39 degrees of freedom in the 1st order CPHF.  IDoFFX=5.
     33 vectors produced by pass  0 Test12= 6.25D-11 2.56D-07 XBig12= 1.38D-01 1.04D-01.
 AX will form    33 AO Fock derivatives at one time.
 PrRfSu:  requested number of processors reduced to:  16 ShMem   1 Linda.
 CalDSu:  requested number of processors reduced to:  20 ShMem   1 Linda.
     33 vectors produced by pass  1 Test12= 6.25D-11 2.56D-07 XBig12= 5.11D-02 5.00D-02.
 PrRfSu:  requested number of processors reduced to:  16 ShMem   1 Linda.
 CalDSu:  requested number of processors reduced to:  20 ShMem   1 Linda.
     33 vectors produced by pass  2 Test12= 6.25D-11 2.56D-07 XBig12= 1.01D-04 2.36D-03.
 PrRfSu:  requested number of processors reduced to:  16 ShMem   1 Linda.
 CalDSu:  requested number of processors reduced to:  20 ShMem   1 Linda.
     33 vectors produced by pass  3 Test12= 6.25D-11 2.56D-07 XBig12= 5.02D-07 1.22D-04.
 PrRfSu:  requested number of processors reduced to:  16 ShMem   1 Linda.
 CalDSu:  requested number of processors reduced to:  20 ShMem   1 Linda.
     26 vectors produced by pass  4 Test12= 6.25D-11 2.56D-07 XBig12= 1.18D-09 6.27D-06.
 PrRfSu:  requested number of processors reduced to:  16 ShMem   1 Linda.
 CalDSu:  requested number of processors reduced to:  22 ShMem   1 Linda.
 Inverted reduced A of dimension   158 with in-core refinement.
 End of Minotr Frequency-dependent properties file   721 does not exist.
 End of Minotr Frequency-dependent properties file   722 does not exist.

 **********************************************************************

            Population analysis using the SCF density.

 **********************************************************************

 Orbital symmetries:
       Occupied  (A) (A) (A) (A) (A) (A) (A) (A) (A) (A) (A) (A)
                 (A) (A) (A) (A) (A) (A) (A) (A) (A)
       Virtual   (A) (A) (A) (A) (A) (A) (A) (A) (A) (A) (A) (A)
                 (A) (A) (A) (A) (A) (A) (A) (A) (A) (A) (A) (A)
                 (A) (A) (A) (A) (A) (A) (A) (A) (A) (A) (A) (A)
                 (A) (A) (A) (A) (A) (A) (A) (A) (A) (A) (A) (A)
                 (A) (A) (A) (A) (A) (A) (A) (A) (A) (A) (A) (A)
                 (A) (A) (A) (A) (A) (A) (A) (A) (A) (A) (A) (A)
                 (A) (A) (A) (A) (A) (A) (A) (A) (A) (A) (A) (A)
                 (A) (A) (A) (A) (A) (A) (A) (A) (A) (A) (A) (A)
                 (A) (A) (A) (A) (A) (A) (A) (A) (A) (A) (A) (A)
                 (A) (A) (A) (A) (A) (A) (A) (A)
 The electronic state is 1-A.
 Alpha  occ. eigenvalues --  -18.95608 -18.86575 -10.07319 -10.06497 -10.03832
 Alpha  occ. eigenvalues --   -0.82953  -0.66592  -0.58456  -0.50571  -0.41479
 Alpha  occ. eigenvalues --   -0.32578  -0.28516  -0.26997  -0.23921  -0.20812
 Alpha  occ. eigenvalues --   -0.18357  -0.15779  -0.12246  -0.08174  -0.01975
 Alpha  occ. eigenvalues --   -0.01616
 Alpha virt. eigenvalues --    0.10580   0.12925   0.13508   0.14402   0.15638
 Alpha virt. eigenvalues --    0.16402   0.16456   0.19071   0.21214   0.21365
 Alpha virt. eigenvalues --    0.23673   0.23890   0.24216   0.25279   0.25663
 Alpha virt. eigenvalues --    0.26814   0.28029   0.29186   0.29470   0.30572
 Alpha virt. eigenvalues --    0.33375   0.34214   0.37095   0.37403   0.39282
 Alpha virt. eigenvalues --    0.39887   0.40630   0.42705   0.44363   0.46010
 Alpha virt. eigenvalues --    0.47668   0.47852   0.48548   0.50373   0.52315
 Alpha virt. eigenvalues --    0.52586   0.56434   0.58343   0.78307   0.82043
 Alpha virt. eigenvalues --    0.84809   0.88950   0.91740   0.91924   0.94984
 Alpha virt. eigenvalues --    1.02345   1.05930   1.10740   1.12260   1.14848
 Alpha virt. eigenvalues --    1.19833   1.22770   1.25417   1.26467   1.28458
 Alpha virt. eigenvalues --    1.34630   1.42245   1.43254   1.45510   1.47589
 Alpha virt. eigenvalues --    1.50183   1.52550   1.57789   1.59518   1.63562
 Alpha virt. eigenvalues --    1.72344   1.78460   1.83442   1.85276   1.86380
 Alpha virt. eigenvalues --    1.90280   1.95389   1.99527   2.00130   2.07189
 Alpha virt. eigenvalues --    2.12224   2.13654   2.15984   2.18473   2.22793
 Alpha virt. eigenvalues --    2.24325   2.25973   2.29197   2.31025   2.36922
 Alpha virt. eigenvalues --    2.42569   2.48177   2.53388   2.56954   2.69695
 Alpha virt. eigenvalues --    2.74150   2.77577   2.80210   2.82397   2.84674
 Alpha virt. eigenvalues --    2.85594   2.91210   2.92197   2.94418   2.96584
 Alpha virt. eigenvalues --    3.00913   3.02249   3.16238   3.22057   3.37964
 Alpha virt. eigenvalues --    3.49199   3.58780   3.61091   3.64876   3.70788
 Alpha virt. eigenvalues --    3.73063   4.38764   4.42165   4.57478   4.67406
 Alpha virt. eigenvalues --    4.83192
          Condensed to atoms (all electrons):
              1          2          3          4          5          6
     1  C    5.906540   0.142499   0.359143  -0.006040   0.410592   0.049702
     2  O    0.142499   8.892763  -0.036185   0.161962  -0.006359  -0.000145
     3  H    0.359143  -0.036185   0.514517  -0.004810  -0.032046   0.012241
     4  H   -0.006040   0.161962  -0.004810   0.589808  -0.000897  -0.004373
     5  H    0.410592  -0.006359  -0.032046  -0.000897   0.551931  -0.012360
     6  H    0.049702  -0.000145   0.012241  -0.004373  -0.012360   0.760387
     7  H   -0.070346  -0.005294   0.002543   0.002515  -0.004515  -0.025939
     8  H    0.076763   0.042407  -0.000488  -0.005211  -0.013215   0.011420
     9  H    0.034489  -0.004455   0.009353   0.000630  -0.000696   0.018203
    10  C    0.070057  -0.011336  -0.035320   0.001065   0.021230  -0.147393
    11  C   -0.898812  -0.241136   0.077278   0.028760  -0.054715   0.303255
    12  O    0.150164   0.037233  -0.050835  -0.006164  -0.022919  -0.051284
              7          8          9         10         11         12
     1  C   -0.070346   0.076763   0.034489   0.070057  -0.898812   0.150164
     2  O   -0.005294   0.042407  -0.004455  -0.011336  -0.241136   0.037233
     3  H    0.002543  -0.000488   0.009353  -0.035320   0.077278  -0.050835
     4  H    0.002515  -0.005211   0.000630   0.001065   0.028760  -0.006164
     5  H   -0.004515  -0.013215  -0.000696   0.021230  -0.054715  -0.022919
     6  H   -0.025939   0.011420   0.018203  -0.147393   0.303255  -0.051284
     7  H    0.652387  -0.052641  -0.050157   0.403605   0.048843  -0.024172
     8  H   -0.052641   0.604447  -0.000279   0.321310  -0.112730   0.019995
     9  H   -0.050157  -0.000279   0.571516   0.387133  -0.107018   0.021867
    10  C    0.403605   0.321310   0.387133   6.270010  -0.646556  -0.127756
    11  C    0.048843  -0.112730  -0.107018  -0.646556   7.465470  -0.063322
    12  O   -0.024172   0.019995   0.021867  -0.127756  -0.063322   8.643548
 Mulliken atomic charges:
              1
     1  C   -0.224751
     2  O   -0.971955
     3  H    0.184608
     4  H    0.242755
     5  H    0.163970
     6  H    0.086284
     7  H    0.123171
     8  H    0.108222
     9  H    0.119414
    10  C   -0.506049
    11  C    0.200683
    12  O   -0.526353
 Sum of Mulliken atomic charges =  -1.00000
 Mulliken charges with hydrogens summed into heavy atoms:
              1
     1  C    0.123828
     2  O   -0.729200
    10  C   -0.155242
    11  C    0.286968
    12  O   -0.526353
 Sum of Mulliken charges with hydrogens summed into heavy atoms =  -1.00000
 APT atomic charges:
              1
     1  C   -0.556709
     2  O   -1.248382
     3  H    0.377158
     4  H    0.431731
     5  H    0.472334
     6  H    0.319968
     7  H    0.440651
     8  H    0.304442
     9  H    0.276636
    10  C   -1.065116
    11  C   -0.152213
    12  O   -0.600501
 Sum of APT charges=  -1.00000
 APT Atomic charges with hydrogens summed into heavy atoms:
              1
     1  C    0.292783
     2  O   -0.816651
     3  H    0.000000
     4  H    0.000000
     5  H    0.000000
     6  H    0.000000
     7  H    0.000000
     8  H    0.000000
     9  H    0.000000
    10  C   -0.043387
    11  C    0.167755
    12  O   -0.600501
 Sum of APT charges=  -1.00000
 Electronic spatial extent (au):  <R**2>=            561.7058
 Charge=             -1.0000 electrons
 Dipole moment (field-independent basis, Debye):
    X=              4.5148    Y=              1.1403    Z=              2.1213  Tot=              5.1170
 Quadrupole moment (field-independent basis, Debye-Ang):
   XX=            -63.2297   YY=            -40.8166   ZZ=            -33.7765
   XY=              6.8742   XZ=             -3.0826   YZ=              0.3497
 Traceless Quadrupole moment (field-independent basis, Debye-Ang):
   XX=            -17.2888   YY=              5.1243   ZZ=             12.1644
   XY=              6.8742   XZ=             -3.0826   YZ=              0.3497
 Octapole moment (field-independent basis, Debye-Ang**2):
  XXX=             53.1321  YYY=             -3.3215  ZZZ=              0.7621  XYY=             -4.8006
  XXY=              0.3312  XXZ=             14.4596  XZZ=             -1.6856  YZZ=             -1.3804
  YYZ=              2.3114  XYZ=             -2.4453
 Hexadecapole moment (field-independent basis, Debye-Ang**3):
 XXXX=           -661.6206 YYYY=           -251.9822 ZZZZ=            -79.0660 XXXY=             15.1981
 XXXZ=            -31.6106 YYYX=              4.0852 YYYZ=              1.6600 ZZZX=             -2.5067
 ZZZY=              0.4269 XXYY=           -140.6307 XXZZ=            -92.2777 YYZZ=            -54.3978
 XXYZ=              6.0681 YYXZ=             -2.1327 ZZXY=             -0.8906
 N-N= 1.742329355078D+02 E-N=-9.859105453651D+02  KE= 2.664012306586D+02
  Exact polarizability:   0.000   0.000   0.000   0.000   0.000   0.000
 Approx polarizability: 120.553 -14.471  84.263  -1.518   3.788  73.033
 PrsmSu:  requested number of processors reduced to:  10 ShMem   1 Linda.
 PrsmSu:  requested number of processors reduced to:  11 ShMem   1 Linda.
 Calling FoFJK, ICntrl=    100147 FMM=F ISym2X=0 I1Cent= 0 IOpClX= 0 NMat=1 NMatS=1 NMatT=0.
 CoulSu:  requested number of processors reduced to:  11 ShMem   1 Linda.
 ***** Axes restored to original set *****
 -------------------------------------------------------------------
 Center     Atomic                   Forces (Hartrees/Bohr)
 Number     Number              X              Y              Z
 -------------------------------------------------------------------
      1        6           0.001882725   -0.000162897   -0.000056932
      2        8           0.000714057   -0.000046495   -0.000093968
      3        1          -0.000099760    0.000445651   -0.000062450
      4        1          -0.000010476   -0.000069909    0.000052692
      5        1          -0.000060769   -0.000011380   -0.000082365
      6        1          -0.000284874   -0.000024613   -0.000079153
      7        1           0.000901505    0.001096725    0.002019764
      8        1           0.001638077    0.000258841   -0.003564932
      9        1          -0.004921272   -0.000567890   -0.000165364
     10        6           0.002051580   -0.001088248    0.001863190
     11        6           0.000587845    0.000424348    0.000164759
     12        8           0.000099907   -0.000208133   -0.000067036
 -------------------------------------------------------------------
 Cartesian Forces:  Max     0.004921272 RMS     0.001291126
 -----------------------------------------------------------------------------------------------
                       Internal Coordinate Forces (Hartree/Bohr or radian)
  Cent   Atom   N1       Length/X         N2         Alpha/Y        N3         Beta/Z          J
 -----------------------------------------------------------------------------------------------
      1  C 
      2  O        1  -0.000041(     1)
      3  H        1  -0.000112(     2)      2   0.000075(    12)
      4  H        2   0.000032(     3)      1   0.000081(    13)      3   0.000167(    22)     0
      5  H        1   0.000015(     4)      2   0.000171(    14)      4  -0.000117(    23)     0
      6  H        1   0.000256(     5)      2   0.000052(    15)      4   0.000592(    24)     0
      7  H        1  -0.001747(     6)      2  -0.010093(    16)      4  -0.005021(    25)     0
      8  H        1  -0.001199(     7)      2   0.019188(    17)      4  -0.008876(    26)     0
      9  H        1  -0.001517(     8)      2   0.001792(    18)      4   0.024133(    27)     0
     10  C        1   0.000875(     9)      2  -0.009650(    19)      4  -0.010758(    28)     0
     11  C        1  -0.000496(    10)      2  -0.000094(    20)     10  -0.000959(    29)     0
     12  O       11  -0.000022(    11)      1   0.000419(    21)      2   0.000463(    30)     0
 -----------------------------------------------------------------------------------------------
 Internal  Forces:  Max     0.024132987 RMS     0.006777804

 GradGradGradGradGradGradGradGradGradGradGradGradGradGradGradGradGradGrad
 Berny optimization.
 Search for a saddle point.
 Step number   1 out of a maximum of  100
 All quantities printed in internal units (Hartrees-Bohrs-Radians)
 Swaping is turned off.
 Second derivative matrix not updated -- analytic derivatives used.
 ITU=  0
     Eigenvalues ---   -0.05275   0.00034   0.00897   0.01455   0.01618
     Eigenvalues ---    0.02012   0.03635   0.06628   0.07918   0.09485
     Eigenvalues ---    0.12390   0.16771   0.24683   0.28558   0.29884
     Eigenvalues ---    0.36806   0.38261   0.38725   0.42424   0.51292
     Eigenvalues ---    0.58759   0.92702   1.18726   2.72608   2.93884
     Eigenvalues ---    3.37259   5.34180   6.85985  17.25703  19.41730
 Eigenvectors required to have negative eigenvalues:
                          B1        A10       A1        A3        A2
   1                    0.67895  -0.48178  -0.34813  -0.30007   0.19560
                          A9        D2        B11       D1        B7
   1                   -0.15733  -0.08763   0.08446   0.06468   0.05807
 RFO step:  Lambda0=2.123040134D-07 Lambda=-1.80387288D-04.
 Linear search not attempted -- option 19 set.
 Variable       Old X    -DE/DX   Delta X   Delta X   Delta X     New X
                                 (Linear)    (Quad)   (Total)
    B1        4.24055  -0.00004   0.00000   0.00045   0.00045   4.24100
    B2        2.03474  -0.00011   0.00000  -0.00025  -0.00025   2.03449
    B3        1.83121   0.00003   0.00000   0.00004   0.00004   1.83125
    B4        2.03470   0.00002   0.00000   0.00000   0.00000   2.03470
    B5        4.10794   0.00026   0.00000   0.00042   0.00042   4.10837
    B6        6.53602  -0.00175   0.00000  -0.00226  -0.00226   6.53376
    B7        5.67173  -0.00120   0.00000   0.01450   0.01450   5.68623
    B8        5.16406  -0.00152   0.00000  -0.00178  -0.00178   5.16228
    B9        4.85235   0.00088   0.00000   0.00251   0.00251   4.85486
   B10        2.74344  -0.00050   0.00000  -0.00055  -0.00055   2.74290
   B11        2.66826  -0.00002   0.00000   0.00089   0.00089   2.66915
    A1        1.33099   0.00008   0.00000   0.00127   0.00127   1.33226
    A2        1.91288   0.00008   0.00000   0.00188   0.00188   1.91476
    A3        1.48556   0.00017   0.00000   0.00092   0.00092   1.48647
    A4        1.83548   0.00005   0.00000  -0.00385  -0.00385   1.83163
    A5        1.89440  -0.01009   0.00000  -0.00247  -0.00247   1.89193
    A6        1.34659   0.01919   0.00000   0.00124   0.00124   1.34783
    A7        1.68924   0.00179   0.00000   0.00447   0.00447   1.69370
    A8        1.69660  -0.00965   0.00000  -0.00098  -0.00098   1.69561
    A9        1.98809  -0.00009   0.00000  -0.00455  -0.00455   1.98354
   A10        1.29186   0.00042   0.00000  -0.00088  -0.00088   1.29098
    D1       -3.06866   0.00017   0.00000   0.02890   0.02890  -3.03976
    D2        1.08544  -0.00012   0.00000   0.02814   0.02814   1.11358
    D3       -0.56250   0.00059   0.00000   0.02906   0.02906  -0.53344
    D4       -1.41729  -0.00502   0.00000   0.02979   0.02979  -1.38750
    D5       -1.40058  -0.00888   0.00000   0.02249   0.02249  -1.37809
    D6       -1.93031   0.02413   0.00000   0.03160   0.03160  -1.89871
    D7       -1.51228  -0.01076   0.00000   0.02877   0.02877  -1.48351
    D8        0.47386  -0.00096   0.00000   0.00068   0.00068   0.47454
    D9       -3.04078   0.00046   0.00000  -0.00037  -0.00037  -3.04114
         Item               Value     Threshold  Converged?
 Maximum Force            0.024133     0.000015     NO 
 RMS     Force            0.006778     0.000010     NO 
 Maximum Displacement     0.031602     0.000060     NO 
 RMS     Displacement     0.014128     0.000040     NO 
 Predicted change in Energy=-9.063209D-05
 GradGradGradGradGradGradGradGradGradGradGradGradGradGradGradGradGradGrad

 ---------------------------------------------------------------------------------------------------
                            Z-MATRIX (ANGSTROMS AND DEGREES)
   CD    Cent   Atom    N1       Length/X        N2       Alpha/Y        N3        Beta/Z          J
 ---------------------------------------------------------------------------------------------------
      1      1  C 
      2      2  O        1   2.244239(     1)
      3      3  H        1   1.076606(     2)      2   76.333(    12)
      4      4  H        2   0.969057(     3)      1  109.707(    13)      3 -174.165(    22)      0
      5      5  H        1   1.076718(     4)      2   85.169(    14)      4   63.803(    23)      0
      6      6  H        1   2.174054(     5)      2  104.945(    15)      4  -30.564(    24)      0
      7      7  H        1   3.457518(     6)      2  108.399(    16)      4  -79.498(    25)      0
      8      8  H        1   3.009023(     7)      2   77.225(    17)      4  -78.959(    26)      0
      9      9  H        1   2.731761(     8)      2   97.042(    18)      4 -108.788(    27)      0
     10     10  C        1   2.569081(     9)      2   97.151(    19)      4  -84.999(    28)      0
     11     11  C        1   1.451479(    10)      2  113.649(    20)     10   27.189(    29)      0
     12     12  O       11   1.412452(    11)      1   73.968(    21)      2 -174.245(    30)      0
 ---------------------------------------------------------------------------------------------------
                         Z-Matrix orientation:                         
 ---------------------------------------------------------------------
 Center     Atomic      Atomic             Coordinates (Angstroms)
 Number     Number       Type             X           Y           Z
 ---------------------------------------------------------------------
      1          6           0        0.000000    0.000000    0.000000
      2          8           0        0.000000    0.000000    2.244239
      3          1           0        1.046122    0.000000    0.254381
      4          1           0       -0.907570   -0.092741    2.571021
      5          1           0       -0.569042    0.909555    0.090683
      6          1           0       -1.690721   -1.246447   -0.560663
      7          1           0       -0.266973   -3.269887   -1.091329
      8          1           0       -0.266305   -2.922427    0.665374
      9          1           0        1.129575   -2.464633   -0.334909
     10          6           0        0.037077   -2.548826   -0.319826
     11          6           0       -0.590266   -1.191383   -0.582224
     12          8           0       -0.069125   -0.446163   -1.663003
 ---------------------------------------------------------------------
                    Distance matrix (angstroms):
                    1          2          3          4          5
     1  C    0.000000
     2  O    2.244239   0.000000
     3  H    1.076606   2.248090   0.000000
     4  H    2.728083   0.969057   3.031887   0.000000
     5  H    1.076718   2.406014   1.860871   2.696531   0.000000
     6  H    2.174054   3.504232   3.115804   3.428091   2.516100
     7  H    3.457518   4.678616   3.771911   4.890545   4.353864
     8  H    3.009023   3.332313   3.229854   3.471287   3.886644
     9  H    2.731761   3.741973   2.535477   4.268520   3.801522
    10  C    2.569081   3.615566   2.800786   3.909183   3.535010
    11  C    1.451479   3.123572   2.190220   3.354199   2.206172
    12  O    1.723200   3.933240   2.262564   4.330688   2.272290
                    6          7          8          9         10
     6  H    0.000000
     7  H    2.530410   0.000000
     8  H    2.518142   1.790736   0.000000
     9  H    3.080424   1.780716   1.777251   0.000000
    10  C    2.177035   1.098905   1.096466   1.095841   0.000000
    11  C    1.102043   2.164228   2.158232   2.154108   1.518244
    12  O    2.117824   2.887797   3.404717   2.697209   2.497317
                   11         12
    11  C    0.000000
    12  O    1.412452   0.000000
 Stoichiometry    C3H7O2(1-)
 Framework group  C1[X(C3H7O2)]
 Deg. of freedom    30
 Full point group                 C1      NOp   1
 Largest Abelian subgroup         C1      NOp   1
 Largest concise Abelian subgroup C1      NOp   1
                         Standard orientation:                         
 ---------------------------------------------------------------------
 Center     Atomic      Atomic             Coordinates (Angstroms)
 Number     Number       Type             X           Y           Z
 ---------------------------------------------------------------------
      1          6           0       -0.373306   -0.767595   -0.148202
      2          8           0       -2.371969    0.251040   -0.082319
      3          1           0       -0.618297   -0.620708   -1.186221
      4          1           0       -2.604839    0.454689    0.836032
      5          1           0       -0.857421   -1.553535    0.406102
      6          1           0        0.722322    0.037162    1.548405
      7          1           0        2.089459    1.641047    0.147882
      8          1           0        0.367053    2.128984    0.192270
      9          1           0        1.025201    1.309210   -1.240711
     10          6           0        1.069298    1.358215   -0.146855
     11          6           0        0.697094    0.011396    0.446952
     12          8           0        1.311720   -1.127158   -0.119573
 ---------------------------------------------------------------------
 Rotational constants (GHZ):      7.0610314      3.1045404      2.3476535
 Standard basis: 6-31++G(d,p) (6D, 7F)
 The following finite field(s) will be applied:
 An electric field of              0.0000  0.0000 -0.0025
 There are   137 symmetry adapted basis functions of A   symmetry.
 Integral buffers will be    131072 words long.
 Raffenetti 2 integral format.
 Two-electron integral symmetry is turned on.
   137 basis functions,   216 primitive gaussians,   137 cartesian basis functions
    21 alpha electrons       21 beta electrons
       nuclear repulsion energy       174.3207168484 Hartrees.
 NAtoms=   12 NActive=   12 NUniq=   12 SFac= 1.00D+00 NAtFMM=   50 NAOKFM=F Big=F
 One-electron integrals computed using PRISM.
 PrsmSu:  requested number of processors reduced to:  10 ShMem   1 Linda.
 NBasis=   137 RedAO= T  NBF=   137
 NBsUse=   137 1.00D-06 NBFU=   137
 The nuclear repulsion energy is now       174.3207168484 hartrees.
 Initial guess read from the read-write file.
 B after Tr=     0.000000    0.000000    0.000000
         Rot=    1.000000    0.000000    0.000000    0.000000 Ang=   0.00 deg.
 Initial guess orbital symmetries:
       Occupied  (A) (A) (A) (A) (A) (A) (A) (A) (A) (A) (A) (A)
                 (A) (A) (A) (A) (A) (A) (A) (A) (A)
       Virtual   (A) (A) (A) (A) (A) (A) (A) (A) (A) (A) (A) (A)
                 (A) (A) (A) (A) (A) (A) (A) (A) (A) (A) (A) (A)
                 (A) (A) (A) (A) (A) (A) (A) (A) (A) (A) (A) (A)
                 (A) (A) (A) (A) (A) (A) (A) (A) (A) (A) (A) (A)
                 (A) (A) (A) (A) (A) (A) (A) (A) (A) (A) (A) (A)
                 (A) (A) (A) (A) (A) (A) (A) (A) (A) (A) (A) (A)
                 (A) (A) (A) (A) (A) (A) (A) (A) (A) (A) (A) (A)
                 (A) (A) (A) (A) (A) (A) (A) (A) (A) (A) (A) (A)
                 (A) (A) (A) (A) (A) (A) (A) (A) (A) (A) (A) (A)
                 (A) (A) (A) (A) (A) (A) (A) (A)
 Harris functional with IExCor=  402 diagonalized for initial guess.
 ExpMin= 3.60D-02 ExpMax= 5.48D+03 ExpMxC= 8.25D+02 IAcc=3 IRadAn=         0 AccDes= 0.00D+00
 HarFok:  IExCor=  402 AccDes= 0.00D+00 IRadAn=         0 IDoV= 1
 ScaDFX=  1.000000  1.000000  1.000000  1.000000
 FoFCou: FMM=F IPFlag=           0 FMFlag=      100000 FMFlg1=           0
         NFxFlg=           0 DoJE=T BraDBF=F KetDBF=T FulRan=T
         Omega=  0.000000  0.000000  1.000000  0.000000  0.000000 ICntrl=     500 IOpCl=  0
         NMat0=    1 NMatS0=    1 NMatT0=    0 NMatD0=    1 NMtDS0=    0 NMtDT0=    0
         I1Cent=           4 NGrid=           0.
 Petite list used in FoFCou.
 Requested convergence on RMS density matrix=1.00D-08 within 128 cycles.
 Requested convergence on MAX density matrix=1.00D-06.
 Requested convergence on             energy=1.00D-06.
 No special actions if energy rises.
 SCF Done:  E(RB3LYP) =  -268.945617262     A.U. after   11 cycles
             Convg  =    0.4282D-08             -V/T =  2.0095
 PrsmSu:  requested number of processors reduced to:  10 ShMem   1 Linda.
 PrsmSu:  requested number of processors reduced to:  23 ShMem   1 Linda.
 Calling FoFJK, ICntrl=      2127 FMM=F ISym2X=0 I1Cent= 0 IOpClX= 0 NMat=1 NMatS=1 NMatT=0.
 CoulSu:  requested number of processors reduced to:  16 ShMem   1 Linda.
 ***** Axes restored to original set *****
 -------------------------------------------------------------------
 Center     Atomic                   Forces (Hartrees/Bohr)
 Number     Number              X              Y              Z
 -------------------------------------------------------------------
      1        6           0.001728929   -0.000493534   -0.000081599
      2        8           0.000782323    0.000021586   -0.000000820
      3        1          -0.000000984    0.000505736   -0.000000554
      4        1           0.000003294   -0.000022364   -0.000000850
      5        1           0.000001598    0.000001545   -0.000000137
      6        1          -0.000003066    0.000001288   -0.000000565
      7        1          -0.000021445   -0.000012316   -0.000003660
      8        1           0.000038724   -0.000015907    0.000023945
      9        1           0.000051720    0.000022924   -0.000058602
     10        6          -0.000086159    0.000040354    0.000043996
     11        6           0.000003870   -0.000001365    0.000008814
     12        8          -0.000000322   -0.000001073   -0.000003359
 -------------------------------------------------------------------
 Cartesian Forces:  Max     0.001728929 RMS     0.000338662
 -----------------------------------------------------------------------------------------------
                       Internal Coordinate Forces (Hartree/Bohr or radian)
  Cent   Atom   N1       Length/X         N2         Alpha/Y        N3         Beta/Z          J
 -----------------------------------------------------------------------------------------------
      1  C 
      2  O        1  -0.000002(     1)
      3  H        1  -0.000001(     2)      2   0.000001(    12)
      4  H        2  -0.000001(     3)      1  -0.000001(    13)      3   0.000007(    22)     0
      5  H        1   0.000000(     4)      2   0.000000(    14)      4   0.000004(    23)     0
      6  H        1   0.000002(     5)      2   0.000000(    15)      4   0.000011(    24)     0
      7  H        1   0.000014(     6)      2  -0.000006(    16)      4   0.000126(    25)     0
      8  H        1   0.000017(     7)      2  -0.000117(    17)      4  -0.000222(    26)     0
      9  H        1   0.000008(     8)      2   0.000300(    18)      4  -0.000290(    27)     0
     10  C        1  -0.000047(     9)      2  -0.000187(    19)      4   0.000402(    28)     0
     11  C        1  -0.000002(    10)      2  -0.000022(    20)     10  -0.000010(    29)     0
     12  O       11   0.000002(    11)      1   0.000008(    21)      2   0.000000(    30)     0
 -----------------------------------------------------------------------------------------------
 Internal  Forces:  Max     0.000402061 RMS     0.000122883

 GradGradGradGradGradGradGradGradGradGradGradGradGradGradGradGradGradGrad
 Berny optimization.
 Search for a saddle point.
 Step number   2 out of a maximum of  100
 All quantities printed in internal units (Hartrees-Bohrs-Radians)
 Swaping is turned off.
 Update second derivatives using D2CorN and points    1    2
 ITU=  0  0
     Eigenvalues ---   -0.05276   0.00028   0.00898   0.01457   0.01625
     Eigenvalues ---    0.02018   0.03627   0.06628   0.07917   0.09485
     Eigenvalues ---    0.12376   0.16761   0.24683   0.28550   0.29860
     Eigenvalues ---    0.36806   0.38261   0.38725   0.42424   0.51292
     Eigenvalues ---    0.58759   0.92702   1.18726   2.72607   2.93884
     Eigenvalues ---    3.37258   5.34180   6.85998  17.25707  19.41732
 Eigenvectors required to have negative eigenvalues:
                          B1        A10       A1        A3        A2
   1                    0.67894  -0.48179  -0.34806  -0.30009   0.19559
                          A9        D2        B11       D1        B7
   1                   -0.15744  -0.08729   0.08448   0.06502   0.05806
 RFO step:  Lambda0=1.013729725D-09 Lambda=-3.44279349D-06.
 Linear search not attempted -- option 19 set.
 Variable       Old X    -DE/DX   Delta X   Delta X   Delta X     New X
                                 (Linear)    (Quad)   (Total)
    B1        4.24100   0.00000   0.00000   0.00093   0.00093   4.24193
    B2        2.03449   0.00000   0.00000   0.00006   0.00006   2.03455
    B3        1.83125   0.00000   0.00000  -0.00002  -0.00002   1.83123
    B4        2.03470   0.00000   0.00000  -0.00011  -0.00011   2.03460
    B5        4.10837   0.00000   0.00000  -0.00006  -0.00006   4.10831
    B6        6.53376   0.00001   0.00000   0.00135   0.00135   6.53512
    B7        5.68623   0.00002   0.00000  -0.00425  -0.00425   5.68198
    B8        5.16228   0.00001   0.00000   0.00162   0.00162   5.16390
    B9        4.85486  -0.00005   0.00000  -0.00045  -0.00045   4.85441
   B10        2.74290   0.00000   0.00000  -0.00013  -0.00013   2.74277
   B11        2.66915   0.00000   0.00000   0.00007   0.00007   2.66922
    A1        1.33226   0.00000   0.00000   0.00207   0.00207   1.33433
    A2        1.91476   0.00000   0.00000  -0.00192  -0.00192   1.91284
    A3        1.48647   0.00000   0.00000  -0.00336  -0.00336   1.48311
    A4        1.83163   0.00000   0.00000  -0.00133  -0.00133   1.83030
    A5        1.89193  -0.00001   0.00000   0.00067   0.00067   1.89260
    A6        1.34783  -0.00012   0.00000   0.00062   0.00062   1.34845
    A7        1.69370   0.00030   0.00000   0.00581   0.00581   1.69951
    A8        1.69561  -0.00019   0.00000   0.00210   0.00210   1.69771
    A9        1.98354  -0.00002   0.00000   0.00033   0.00033   1.98388
   A10        1.29098   0.00001   0.00000  -0.00021  -0.00021   1.29077
    D1       -3.03976   0.00001   0.00000   0.03107   0.03107  -3.00869
    D2        1.11358   0.00000   0.00000   0.03039   0.03039   1.14397
    D3       -0.53344   0.00001   0.00000   0.03121   0.03121  -0.50223
    D4       -1.38750   0.00013   0.00000   0.03258   0.03258  -1.35492
    D5       -1.37809  -0.00022   0.00000   0.02738   0.02738  -1.35071
    D6       -1.89871  -0.00029   0.00000   0.03024   0.03024  -1.86847
    D7       -1.48351   0.00040   0.00000   0.03046   0.03046  -1.45305
    D8        0.47454  -0.00001   0.00000   0.00144   0.00144   0.47598
    D9       -3.04114   0.00000   0.00000  -0.00375  -0.00375  -3.04489
         Item               Value     Threshold  Converged?
 Maximum Force            0.000402     0.000015     NO 
 RMS     Force            0.000123     0.000010     NO 
 Maximum Displacement     0.032576     0.000060     NO 
 RMS     Displacement     0.014850     0.000040     NO 
 Predicted change in Energy=-1.732355D-06
 GradGradGradGradGradGradGradGradGradGradGradGradGradGradGradGradGradGrad

 ---------------------------------------------------------------------------------------------------
                            Z-MATRIX (ANGSTROMS AND DEGREES)
   CD    Cent   Atom    N1       Length/X        N2       Alpha/Y        N3        Beta/Z          J
 ---------------------------------------------------------------------------------------------------
      1      1  C 
      2      2  O        1   2.244731(     1)
      3      3  H        1   1.076639(     2)      2   76.451(    12)
      4      4  H        2   0.969047(     3)      1  109.598(    13)      3 -172.385(    22)      0
      5      5  H        1   1.076662(     4)      2   84.976(    14)      4   65.544(    23)      0
      6      6  H        1   2.174023(     5)      2  104.869(    15)      4  -28.776(    24)      0
      7      7  H        1   3.458235(     6)      2  108.438(    16)      4  -77.631(    25)      0
      8      8  H        1   3.006773(     7)      2   77.260(    17)      4  -77.390(    26)      0
      9      9  H        1   2.732619(     8)      2   97.375(    18)      4 -107.056(    27)      0
     10     10  C        1   2.568841(     9)      2   97.272(    19)      4  -83.254(    28)      0
     11     11  C        1   1.451409(    10)      2  113.668(    20)     10   27.272(    29)      0
     12     12  O       11   1.412491(    11)      1   73.956(    21)      2 -174.459(    30)      0
 ---------------------------------------------------------------------------------------------------
                         Z-Matrix orientation:                         
 ---------------------------------------------------------------------
 Center     Atomic      Atomic             Coordinates (Angstroms)
 Number     Number       Type             X           Y           Z
 ---------------------------------------------------------------------
      1          6           0        0.000000    0.000000    0.000000
      2          8           0        0.000000    0.000000    2.244731
      3          1           0        1.046678    0.000000    0.252226
      4          1           0       -0.904860   -0.120974    2.569761
      5          1           0       -0.569470    0.908854    0.094283
      6          1           0       -1.691470   -1.246635   -0.557858
      7          1           0       -0.271884   -3.269426   -1.093765
      8          1           0       -0.255347   -2.921616    0.663055
      9          1           0        1.131154   -2.462653   -0.350766
     10          6           0        0.038626   -2.547886   -0.325158
     11          6           0       -0.591137   -1.190662   -0.582641
     12          8           0       -0.073553   -0.442887   -1.663414
 ---------------------------------------------------------------------
                    Distance matrix (angstroms):
                    1          2          3          4          5
     1  C    0.000000
     2  O    2.244731   0.000000
     3  H    1.076639   2.250691   0.000000
     4  H    2.727101   0.969047   3.032178   0.000000
     5  H    1.076662   2.403069   1.860885   2.702041   0.000000
     6  H    2.174023   3.502810   3.115733   3.415826   2.516010
     7  H    3.458235   4.680665   3.773519   4.871841   4.354083
     8  H    3.006773   3.332078   3.224886   3.449782   3.885187
     9  H    2.732619   3.752436   2.536808   4.261255   3.802269
    10  C    2.568841   3.619053   2.800226   3.893665   3.534793
    11  C    1.451409   3.124284   2.190231   3.343695   2.206051
    12  O    1.722935   3.933848   2.262906   4.326023   2.272143
                    6          7          8          9         10
     6  H    0.000000
     7  H    2.528656   0.000000
     8  H    2.521634   1.790995   0.000000
     9  H    3.080388   1.780856   1.777883   0.000000
    10  C    2.177300   1.098996   1.096659   1.096147   0.000000
    11  C    1.102035   2.164355   2.158869   2.153604   1.518208
    12  O    2.118000   2.890183   3.404352   2.693291   2.496905
                   11         12
    11  C    0.000000
    12  O    1.412491   0.000000
 Stoichiometry    C3H7O2(1-)
 Framework group  C1[X(C3H7O2)]
 Deg. of freedom    30
 Full point group                 C1      NOp   1
 Largest Abelian subgroup         C1      NOp   1
 Largest concise Abelian subgroup C1      NOp   1
                         Standard orientation:                         
 ---------------------------------------------------------------------
 Center     Atomic      Atomic             Coordinates (Angstroms)
 Number     Number       Type             X           Y           Z
 ---------------------------------------------------------------------
      1          6           0       -0.373340   -0.767122   -0.149410
      2          8           0       -2.373799    0.248929   -0.081422
      3          1           0       -0.617093   -0.620321   -1.187768
      4          1           0       -2.592220    0.475642    0.835063
      5          1           0       -0.859012   -1.552126    0.404748
      6          1           0        0.719560    0.038569    1.548473
      7          1           0        2.088321    1.642867    0.153186
      8          1           0        0.364721    2.128636    0.183060
      9          1           0        1.035040    1.303967   -1.242232
     10          6           0        1.070660    1.357449   -0.147970
     11          6           0        0.696327    0.011778    0.447008
     12          8           0        1.311150   -1.127662   -0.117615
 ---------------------------------------------------------------------
 Rotational constants (GHZ):      7.0630124      3.1030319      2.3470685
 Standard basis: 6-31++G(d,p) (6D, 7F)
 The following finite field(s) will be applied:
 An electric field of              0.0000  0.0000 -0.0025
 There are   137 symmetry adapted basis functions of A   symmetry.
 Integral buffers will be    131072 words long.
 Raffenetti 2 integral format.
 Two-electron integral symmetry is turned on.
   137 basis functions,   216 primitive gaussians,   137 cartesian basis functions
    21 alpha electrons       21 beta electrons
       nuclear repulsion energy       174.3192581231 Hartrees.
 NAtoms=   12 NActive=   12 NUniq=   12 SFac= 1.00D+00 NAtFMM=   50 NAOKFM=F Big=F
 One-electron integrals computed using PRISM.
 PrsmSu:  requested number of processors reduced to:  10 ShMem   1 Linda.
 NBasis=   137 RedAO= T  NBF=   137
 NBsUse=   137 1.00D-06 NBFU=   137
 The nuclear repulsion energy is now       174.3192581231 hartrees.
 Initial guess read from the read-write file.
 B after Tr=     0.000000    0.000000    0.000000
         Rot=    1.000000    0.000000    0.000000    0.000000 Ang=   0.00 deg.
 Initial guess orbital symmetries:
       Occupied  (A) (A) (A) (A) (A) (A) (A) (A) (A) (A) (A) (A)
                 (A) (A) (A) (A) (A) (A) (A) (A) (A)
       Virtual   (A) (A) (A) (A) (A) (A) (A) (A) (A) (A) (A) (A)
                 (A) (A) (A) (A) (A) (A) (A) (A) (A) (A) (A) (A)
                 (A) (A) (A) (A) (A) (A) (A) (A) (A) (A) (A) (A)
                 (A) (A) (A) (A) (A) (A) (A) (A) (A) (A) (A) (A)
                 (A) (A) (A) (A) (A) (A) (A) (A) (A) (A) (A) (A)
                 (A) (A) (A) (A) (A) (A) (A) (A) (A) (A) (A) (A)
                 (A) (A) (A) (A) (A) (A) (A) (A) (A) (A) (A) (A)
                 (A) (A) (A) (A) (A) (A) (A) (A) (A) (A) (A) (A)
                 (A) (A) (A) (A) (A) (A) (A) (A) (A) (A) (A) (A)
                 (A) (A) (A) (A) (A) (A) (A) (A)
 Harris functional with IExCor=  402 diagonalized for initial guess.
 ExpMin= 3.60D-02 ExpMax= 5.48D+03 ExpMxC= 8.25D+02 IAcc=3 IRadAn=         0 AccDes= 0.00D+00
 HarFok:  IExCor=  402 AccDes= 0.00D+00 IRadAn=         0 IDoV= 1
 ScaDFX=  1.000000  1.000000  1.000000  1.000000
 FoFCou: FMM=F IPFlag=           0 FMFlag=      100000 FMFlg1=           0
         NFxFlg=           0 DoJE=T BraDBF=F KetDBF=T FulRan=T
         Omega=  0.000000  0.000000  1.000000  0.000000  0.000000 ICntrl=     500 IOpCl=  0
         NMat0=    1 NMatS0=    1 NMatT0=    0 NMatD0=    1 NMtDS0=    0 NMtDT0=    0
         I1Cent=           4 NGrid=           0.
 Petite list used in FoFCou.
 Requested convergence on RMS density matrix=1.00D-08 within 128 cycles.
 Requested convergence on MAX density matrix=1.00D-06.
 Requested convergence on             energy=1.00D-06.
 No special actions if energy rises.
 SCF Done:  E(RB3LYP) =  -268.945620499     A.U. after   10 cycles
             Convg  =    0.3529D-08             -V/T =  2.0095
 PrsmSu:  requested number of processors reduced to:  10 ShMem   1 Linda.
 PrsmSu:  requested number of processors reduced to:  23 ShMem   1 Linda.
 Calling FoFJK, ICntrl=      2127 FMM=F ISym2X=0 I1Cent= 0 IOpClX= 0 NMat=1 NMatS=1 NMatT=0.
 CoulSu:  requested number of processors reduced to:  16 ShMem   1 Linda.
 ***** Axes restored to original set *****
 -------------------------------------------------------------------
 Center     Atomic                   Forces (Hartrees/Bohr)
 Number     Number              X              Y              Z
 -------------------------------------------------------------------
      1        6           0.001655463   -0.000408145   -0.000073766
      2        8           0.000835262   -0.000028661    0.000002359
      3        1          -0.000000824    0.000487241   -0.000001125
      4        1           0.000000501    0.000019768   -0.000001312
      5        1          -0.000003745   -0.000001118    0.000001185
      6        1           0.000003461   -0.000003048   -0.000000602
      7        1           0.000011683    0.000015109    0.000048968
      8        1           0.000040032    0.000036957   -0.000093198
      9        1          -0.000126860   -0.000027766   -0.000005512
     10        6           0.000076850   -0.000038853    0.000044803
     11        6           0.000007444   -0.000002341    0.000006007
     12        8          -0.000000895   -0.000000192   -0.000003527
 -------------------------------------------------------------------
 Cartesian Forces:  Max     0.001655463 RMS     0.000328708
 -----------------------------------------------------------------------------------------------
                       Internal Coordinate Forces (Hartree/Bohr or radian)
  Cent   Atom   N1       Length/X         N2         Alpha/Y        N3         Beta/Z          J
 -----------------------------------------------------------------------------------------------
      1  C 
      2  O        1   0.000001(     1)
      3  H        1  -0.000001(     2)      2   0.000002(    12)
      4  H        2  -0.000003(     3)      1   0.000000(    13)      3  -0.000004(    22)     0
      5  H        1   0.000001(     4)      2  -0.000002(    14)      4  -0.000008(    23)     0
      6  H        1  -0.000001(     5)      2   0.000003(    15)      4  -0.000018(    24)     0
      7  H        1  -0.000031(     6)      2  -0.000270(    16)      4  -0.000064(    25)     0
      8  H        1  -0.000060(     7)      2   0.000466(    17)      4  -0.000203(    26)     0
      9  H        1  -0.000027(     8)      2   0.000047(    18)      4   0.000650(    27)     0
     10  C        1   0.000034(     9)      2  -0.000240(    19)      4  -0.000386(    28)     0
     11  C        1  -0.000002(    10)      2  -0.000013(    20)     10  -0.000019(    29)     0
     12  O       11   0.000002(    11)      1   0.000007(    21)      2  -0.000003(    30)     0
 -----------------------------------------------------------------------------------------------
 Internal  Forces:  Max     0.000649724 RMS     0.000180193

 GradGradGradGradGradGradGradGradGradGradGradGradGradGradGradGradGradGrad
 Berny optimization.
 Search for a saddle point.
 Step number   3 out of a maximum of  100
 All quantities printed in internal units (Hartrees-Bohrs-Radians)
 Swaping is turned off.
 Update second derivatives using D2CorN and points    1    2    3
 ITU=  0  0  0
     Eigenvalues ---   -0.05276   0.00046   0.00897   0.01457   0.01627
     Eigenvalues ---    0.02019   0.03625   0.06627   0.07917   0.09485
     Eigenvalues ---    0.12373   0.16760   0.24683   0.28548   0.29856
     Eigenvalues ---    0.36806   0.38261   0.38725   0.42424   0.51292
     Eigenvalues ---    0.58759   0.92702   1.18726   2.72607   2.93884
     Eigenvalues ---    3.37257   5.34180   6.85989  17.25704  19.41732
 Eigenvectors required to have negative eigenvalues:
                          B1        A10       A1        A3        A2
   1                    0.67894  -0.48180  -0.34805  -0.30010   0.19558
                          A9        D2        B11       D1        B7
   1                   -0.15745  -0.08715   0.08448   0.06516   0.05804
 RFO step:  Lambda0=6.948791542D-11 Lambda=-4.84496721D-07.
 Linear search not attempted -- option 19 set.
 Variable       Old X    -DE/DX   Delta X   Delta X   Delta X     New X
                                 (Linear)    (Quad)   (Total)
    B1        4.24193   0.00000   0.00000  -0.00015  -0.00015   4.24178
    B2        2.03455   0.00000   0.00000   0.00000   0.00000   2.03455
    B3        1.83123   0.00000   0.00000   0.00000   0.00000   1.83123
    B4        2.03460   0.00000   0.00000   0.00004   0.00004   2.03464
    B5        4.10831   0.00000   0.00000  -0.00012  -0.00012   4.10819
    B6        6.53512  -0.00003   0.00000   0.00039   0.00039   6.53551
    B7        5.68198  -0.00006   0.00000  -0.00170  -0.00170   5.68028
    B8        5.16390  -0.00003   0.00000   0.00076   0.00076   5.16466
    B9        4.85441   0.00003   0.00000  -0.00006  -0.00006   4.85434
   B10        2.74277   0.00000   0.00000  -0.00003  -0.00003   2.74273
   B11        2.66922   0.00000   0.00000   0.00006   0.00006   2.66928
    A1        1.33433   0.00000   0.00000  -0.00018  -0.00018   1.33415
    A2        1.91284   0.00000   0.00000   0.00022   0.00022   1.91306
    A3        1.48311   0.00000   0.00000   0.00113   0.00113   1.48424
    A4        1.83030   0.00000   0.00000  -0.00049  -0.00049   1.82981
    A5        1.89260  -0.00027   0.00000  -0.00162  -0.00162   1.89098
    A6        1.34845   0.00047   0.00000  -0.00153  -0.00153   1.34692
    A7        1.69951   0.00005   0.00000  -0.00119  -0.00119   1.69833
    A8        1.69771  -0.00024   0.00000  -0.00139  -0.00139   1.69632
    A9        1.98388  -0.00001   0.00000  -0.00096  -0.00096   1.98291
   A10        1.29077   0.00001   0.00000   0.00003   0.00003   1.29080
    D1       -3.00869   0.00000   0.00000  -0.00858  -0.00858  -3.01727
    D2        1.14397  -0.00001   0.00000  -0.00822  -0.00822   1.13575
    D3       -0.50223  -0.00002   0.00000  -0.00852  -0.00852  -0.51075
    D4       -1.35492  -0.00006   0.00000  -0.00808  -0.00808  -1.36301
    D5       -1.35071  -0.00020   0.00000  -0.00817  -0.00817  -1.35888
    D6       -1.86847   0.00065   0.00000  -0.00798  -0.00798  -1.87645
    D7       -1.45305  -0.00039   0.00000  -0.00817  -0.00817  -1.46122
    D8        0.47598  -0.00002   0.00000  -0.00042  -0.00042   0.47557
    D9       -3.04489   0.00000   0.00000   0.00084   0.00084  -3.04405
         Item               Value     Threshold  Converged?
 Maximum Force            0.000650     0.000015     NO 
 RMS     Force            0.000180     0.000010     NO 
 Maximum Displacement     0.008578     0.000060     NO 
 RMS     Displacement     0.004048     0.000040     NO 
 Predicted change in Energy=-2.422135D-07
 GradGradGradGradGradGradGradGradGradGradGradGradGradGradGradGradGradGrad

 ---------------------------------------------------------------------------------------------------
                            Z-MATRIX (ANGSTROMS AND DEGREES)
   CD    Cent   Atom    N1       Length/X        N2       Alpha/Y        N3        Beta/Z          J
 ---------------------------------------------------------------------------------------------------
      1      1  C 
      2      2  O        1   2.244651(     1)
      3      3  H        1   1.076638(     2)      2   76.441(    12)
      4      4  H        2   0.969046(     3)      1  109.610(    13)      3 -172.877(    22)      0
      5      5  H        1   1.076683(     4)      2   85.041(    14)      4   65.074(    23)      0
      6      6  H        1   2.173959(     5)      2  104.840(    15)      4  -29.264(    24)      0
      7      7  H        1   3.458442(     6)      2  108.345(    16)      4  -78.095(    25)      0
      8      8  H        1   3.005873(     7)      2   77.173(    17)      4  -77.858(    26)      0
      9      9  H        1   2.733023(     8)      2   97.307(    18)      4 -107.513(    27)      0
     10     10  C        1   2.568808(     9)      2   97.192(    19)      4  -83.722(    28)      0
     11     11  C        1   1.451391(    10)      2  113.612(    20)     10   27.248(    29)      0
     12     12  O       11   1.412522(    11)      1   73.957(    21)      2 -174.411(    30)      0
 ---------------------------------------------------------------------------------------------------
                         Z-Matrix orientation:                         
 ---------------------------------------------------------------------
 Center     Atomic      Atomic             Coordinates (Angstroms)
 Number     Number       Type             X           Y           Z
 ---------------------------------------------------------------------
      1          6           0        0.000000    0.000000    0.000000
      2          8           0        0.000000    0.000000    2.244651
      3          1           0        1.046632    0.000000    0.252410
      4          1           0       -0.905793   -0.113199    2.569881
      5          1           0       -0.569209    0.909166    0.093077
      6          1           0       -1.691718   -1.246658   -0.556805
      7          1           0       -0.273663   -3.271246   -1.088523
      8          1           0       -0.256383   -2.919620    0.667351
      9          1           0        1.130025   -2.464068   -0.347597
     10          6           0        0.037603   -2.548319   -0.321607
     11          6           0       -0.591364   -1.191157   -0.581352
     12          8           0       -0.073253   -0.444864   -1.662937
 ---------------------------------------------------------------------
                    Distance matrix (angstroms):
                    1          2          3          4          5
     1  C    0.000000
     2  O    2.244651   0.000000
     3  H    1.076638   2.250436   0.000000
     4  H    2.727190   0.969046   3.032400   0.000000
     5  H    1.076683   2.404132   1.860890   2.700569   0.000000
     6  H    2.173959   3.502031   3.115693   3.417393   2.515939
     7  H    3.458442   4.678247   3.773901   4.874092   4.354236
     8  H    3.005873   3.328332   3.224005   3.452153   3.884232
     9  H    2.733023   3.750779   2.537439   4.264133   3.802670
    10  C    2.568808   3.616770   2.800280   3.896218   3.534740
    11  C    1.451391   3.123277   2.190215   3.345314   2.206060
    12  O    1.722971   3.933512   2.262875   4.326647   2.272214
                    6          7          8          9         10
     6  H    0.000000
     7  H    2.528351   0.000000
     8  H    2.521417   1.790819   0.000000
     9  H    3.080274   1.780688   1.777576   0.000000
    10  C    2.177197   1.098940   1.096508   1.095975   0.000000
    11  C    1.102026   2.164469   2.158485   2.153631   1.518208
    12  O    2.117978   2.891115   3.404144   2.693545   2.497194
                   11         12
    11  C    0.000000
    12  O    1.412522   0.000000
 Stoichiometry    C3H7O2(1-)
 Framework group  C1[X(C3H7O2)]
 Deg. of freedom    30
 Full point group                 C1      NOp   1
 Largest Abelian subgroup         C1      NOp   1
 Largest concise Abelian subgroup C1      NOp   1
                         Standard orientation:                         
 ---------------------------------------------------------------------
 Center     Atomic      Atomic             Coordinates (Angstroms)
 Number     Number       Type             X           Y           Z
 ---------------------------------------------------------------------
      1          6           0       -0.372839   -0.767838   -0.149381
      2          8           0       -2.372825    0.248980   -0.081574
      3          1           0       -0.616796   -0.621236   -1.187717
      4          1           0       -2.594758    0.469245    0.835638
      5          1           0       -0.857836   -1.553268    0.404806
      6          1           0        0.719612    0.038534    1.548386
      7          1           0        2.085977    1.645244    0.154080
      8          1           0        0.361667    2.127889    0.183096
      9          1           0        1.034083    1.304968   -1.241837
     10          6           0        1.069040    1.358135   -0.147710
     11          6           0        0.696267    0.011880    0.446930
     12          8           0        1.311980   -1.127035   -0.117861
 ---------------------------------------------------------------------
 Rotational constants (GHZ):      7.0612881      3.1047190      2.3478265
 Standard basis: 6-31++G(d,p) (6D, 7F)
 The following finite field(s) will be applied:
 An electric field of              0.0000  0.0000 -0.0025
 There are   137 symmetry adapted basis functions of A   symmetry.
 Integral buffers will be    131072 words long.
 Raffenetti 2 integral format.
 Two-electron integral symmetry is turned on.
   137 basis functions,   216 primitive gaussians,   137 cartesian basis functions
    21 alpha electrons       21 beta electrons
       nuclear repulsion energy       174.3274821690 Hartrees.
 NAtoms=   12 NActive=   12 NUniq=   12 SFac= 1.00D+00 NAtFMM=   50 NAOKFM=F Big=F
 One-electron integrals computed using PRISM.
 PrsmSu:  requested number of processors reduced to:  10 ShMem   1 Linda.
 NBasis=   137 RedAO= T  NBF=   137
 NBsUse=   137 1.00D-06 NBFU=   137
 The nuclear repulsion energy is now       174.3274821690 hartrees.
 Initial guess read from the read-write file.
 B after Tr=     0.000000    0.000000    0.000000
         Rot=    1.000000    0.000000    0.000000    0.000000 Ang=   0.00 deg.
 Initial guess orbital symmetries:
       Occupied  (A) (A) (A) (A) (A) (A) (A) (A) (A) (A) (A) (A)
                 (A) (A) (A) (A) (A) (A) (A) (A) (A)
       Virtual   (A) (A) (A) (A) (A) (A) (A) (A) (A) (A) (A) (A)
                 (A) (A) (A) (A) (A) (A) (A) (A) (A) (A) (A) (A)
                 (A) (A) (A) (A) (A) (A) (A) (A) (A) (A) (A) (A)
                 (A) (A) (A) (A) (A) (A) (A) (A) (A) (A) (A) (A)
                 (A) (A) (A) (A) (A) (A) (A) (A) (A) (A) (A) (A)
                 (A) (A) (A) (A) (A) (A) (A) (A) (A) (A) (A) (A)
                 (A) (A) (A) (A) (A) (A) (A) (A) (A) (A) (A) (A)
                 (A) (A) (A) (A) (A) (A) (A) (A) (A) (A) (A) (A)
                 (A) (A) (A) (A) (A) (A) (A) (A) (A) (A) (A) (A)
                 (A) (A) (A) (A) (A) (A) (A) (A)
 Requested convergence on RMS density matrix=1.00D-08 within 128 cycles.
 Requested convergence on MAX density matrix=1.00D-06.
 Requested convergence on             energy=1.00D-06.
 No special actions if energy rises.
 SCF Done:  E(RB3LYP) =  -268.945621253     A.U. after    9 cycles
             Convg  =    0.7751D-08             -V/T =  2.0095
 PrsmSu:  requested number of processors reduced to:  10 ShMem   1 Linda.
 PrsmSu:  requested number of processors reduced to:  23 ShMem   1 Linda.
 Calling FoFJK, ICntrl=      2127 FMM=F ISym2X=0 I1Cent= 0 IOpClX= 0 NMat=1 NMatS=1 NMatT=0.
 CoulSu:  requested number of processors reduced to:  16 ShMem   1 Linda.
 ***** Axes restored to original set *****
 -------------------------------------------------------------------
 Center     Atomic                   Forces (Hartrees/Bohr)
 Number     Number              X              Y              Z
 -------------------------------------------------------------------
      1        6           0.001663507   -0.000452515   -0.000071057
      2        8           0.000833902   -0.000006981   -0.000000939
      3        1           0.000000227    0.000493226    0.000000160
      4        1          -0.000002030    0.000010746   -0.000000039
      5        1          -0.000000628   -0.000000568   -0.000000245
      6        1          -0.000002276    0.000000214   -0.000000006
      7        1          -0.000000222    0.000002306    0.000011102
      8        1           0.000017861    0.000004687   -0.000009099
      9        1          -0.000017361   -0.000003465   -0.000015023
     10        6           0.000002855   -0.000001757    0.000009815
     11        6           0.000002352    0.000002696    0.000000396
     12        8           0.000000208   -0.000000554   -0.000000585
 -------------------------------------------------------------------
 Cartesian Forces:  Max     0.001663507 RMS     0.000329862
 -----------------------------------------------------------------------------------------------
                       Internal Coordinate Forces (Hartree/Bohr or radian)
  Cent   Atom   N1       Length/X         N2         Alpha/Y        N3         Beta/Z          J
 -----------------------------------------------------------------------------------------------
      1  C 
      2  O        1  -0.000001(     1)
      3  H        1   0.000000(     2)      2   0.000000(    12)
      4  H        2   0.000001(     3)      1   0.000000(    13)      3  -0.000002(    22)     0
      5  H        1   0.000000(     4)      2   0.000000(    14)      4  -0.000002(    23)     0
      6  H        1   0.000002(     5)      2  -0.000002(    15)      4   0.000006(    24)     0
      7  H        1  -0.000006(     6)      2  -0.000064(    16)      4   0.000003(    25)     0
      8  H        1  -0.000008(     7)      2   0.000043(    17)      4  -0.000096(    26)     0
      9  H        1  -0.000002(     8)      2   0.000080(    18)      4   0.000088(    27)     0
     10  C        1   0.000001(     9)      2  -0.000048(    19)      4  -0.000016(    28)     0
     11  C        1  -0.000003(    10)      2   0.000002(    20)     10  -0.000003(    29)     0
     12  O       11   0.000000(    11)      1   0.000002(    21)      2   0.000001(    30)     0
 -----------------------------------------------------------------------------------------------
 Internal  Forces:  Max     0.000096275 RMS     0.000032715

 GradGradGradGradGradGradGradGradGradGradGradGradGradGradGradGradGradGrad
 Berny optimization.
 Search for a saddle point.
 Step number   4 out of a maximum of  100
 All quantities printed in internal units (Hartrees-Bohrs-Radians)
 Swaping is turned off.
 Update second derivatives using D2CorN and points    1    2    3    4
 ITU=  0  0  0  0
     Eigenvalues ---   -0.05276   0.00020   0.00891   0.01459   0.01619
     Eigenvalues ---    0.02014   0.03618   0.06627   0.07917   0.09485
     Eigenvalues ---    0.12368   0.16756   0.24683   0.28546   0.29848
     Eigenvalues ---    0.36806   0.38261   0.38725   0.42424   0.51292
     Eigenvalues ---    0.58759   0.92702   1.18726   2.72607   2.93884
     Eigenvalues ---    3.37257   5.34180   6.85988  17.25704  19.41732
 Eigenvectors required to have negative eigenvalues:
                          B1        A10       A1        A3        A2
   1                    0.67894  -0.48180  -0.34804  -0.30010   0.19558
                          A9        D2        B11       D1        B7
   1                   -0.15747  -0.08718   0.08448   0.06512   0.05802
 RFO step:  Lambda0=3.563194878D-12 Lambda=-2.70430255D-07.
 Linear search not attempted -- option 19 set.
 Variable       Old X    -DE/DX   Delta X   Delta X   Delta X     New X
[...]
 Translational            0.889              2.981             38.862
 Rotational               0.889              2.981             26.237
 Vibrational             61.754             17.087             14.984
 Vibration     1          0.606              1.942              3.285
 Vibration     2          0.622              1.889              2.523
 Vibration     3          0.629              1.867              2.327
 Vibration     4          0.651              1.800              1.901
 Vibration     5          0.688              1.687              1.458
 Vibration     6          0.761              1.482              0.984
 Vibration     7          0.786              1.419              0.880
 Vibration     8          0.837              1.293              0.708
                       Q            Log10(Q)             Ln(Q)
 Total Bot       0.315209D-29        -29.501401        -67.929486
 Total V=0       0.771084D+14         13.887102         31.976233
 Vib (Bot)       0.102003D-41        -41.991388        -96.688745
 Vib (Bot)    1  0.187750D+01          0.273580          0.629942
 Vib (Bot)    2  0.124473D+01          0.095076          0.218921
 Vib (Bot)    3  0.111468D+01          0.047151          0.108568
 Vib (Bot)    4  0.868002D+00         -0.061479         -0.141561
 Vib (Bot)    5  0.652174D+00         -0.185637         -0.427444
 Vib (Bot)    6  0.453885D+00         -0.343054         -0.789911
 Vib (Bot)    7  0.413464D+00         -0.383562         -0.883184
 Vib (Bot)    8  0.347798D+00         -0.458673         -1.056133
 Vib (V=0)       0.249525D+02          1.397114          3.216975
 Vib (V=0)    1  0.244294D+01          0.387913          0.893202
 Vib (V=0)    2  0.184140D+01          0.265149          0.610527
 Vib (V=0)    3  0.172168D+01          0.235954          0.543303
 Vib (V=0)    4  0.150171D+01          0.176587          0.406606
 Vib (V=0)    5  0.132178D+01          0.121161          0.278983
 Vib (V=0)    6  0.117529D+01          0.070144          0.161512
 Vib (V=0)    7  0.114881D+01          0.060248          0.138725
 Vib (V=0)    8  0.110907D+01          0.044958          0.103520
 Electronic      0.100000D+01          0.000000          0.000000
 Translational   0.255526D+08          7.407434         17.056248
 Rotational      0.120935D+06          5.082553         11.703010
 ***** Axes restored to original set *****
 -------------------------------------------------------------------
 Center     Atomic                   Forces (Hartrees/Bohr)
 Number     Number              X              Y              Z
 -------------------------------------------------------------------
      1        6           0.001651901   -0.000453451   -0.000076357
      2        8           0.000846571    0.000005090   -0.000000100
      3        1          -0.000000017    0.000497057    0.000000058
      4        1          -0.000000003    0.000000136    0.000000033
      5        1          -0.000000009    0.000000002    0.000000012
      6        1           0.000000013   -0.000000037   -0.000000066
      7        1           0.000000082    0.000000290    0.000000403
      8        1           0.000000382   -0.000000486   -0.000000638
      9        1          -0.000000932    0.000000152   -0.000000184
     10        6           0.000000204   -0.000000180    0.000000607
     11        6           0.000000152   -0.000000010    0.000000001
     12        8           0.000000022   -0.000000026   -0.000000017
 -------------------------------------------------------------------
 Cartesian Forces:  Max     0.001651901 RMS     0.000329309
 -----------------------------------------------------------------------------------------------
                       Internal Coordinate Forces (Hartree/Bohr or radian)
  Cent   Atom   N1       Length/X         N2         Alpha/Y        N3         Beta/Z          J
 -----------------------------------------------------------------------------------------------
      1  C 
      2  O        1   0.000000(     1)
      3  H        1   0.000000(     2)      2   0.000000(    12)
      4  H        2   0.000000(     3)      1   0.000000(    13)      3   0.000000(    22)     0
      5  H        1   0.000000(     4)      2   0.000000(    14)      4   0.000000(    23)     0
      6  H        1   0.000000(     5)      2   0.000000(    15)      4   0.000000(    24)     0
      7  H        1   0.000000(     6)      2  -0.000002(    16)      4   0.000000(    25)     0
      8  H        1   0.000000(     7)      2   0.000004(    17)      4  -0.000002(    26)     0
      9  H        1   0.000000(     8)      2   0.000001(    18)      4   0.000004(    27)     0
     10  C        1   0.000000(     9)      2  -0.000003(    19)      4  -0.000001(    28)     0
     11  C        1   0.000000(    10)      2   0.000000(    20)     10   0.000000(    29)     0
     12  O       11   0.000000(    11)      1   0.000000(    21)      2   0.000000(    30)     0
 -----------------------------------------------------------------------------------------------
 Internal  Forces:  Max     0.000004105 RMS     0.000001362

 GradGradGradGradGradGradGradGradGradGradGradGradGradGradGradGradGradGrad
 Berny optimization.
 Search for a saddle point.
 Step number   1 out of a maximum of    2
 All quantities printed in internal units (Hartrees-Bohrs-Radians)
 Swaping is turned off.
 Second derivative matrix not updated -- analytic derivatives used.
 ITU=  0
     Eigenvalues ---   -0.05269   0.00033   0.00758   0.01306   0.01552
     Eigenvalues ---    0.01832   0.03184   0.06521   0.07877   0.09460
     Eigenvalues ---    0.11427   0.16143   0.24598   0.27085   0.28989
     Eigenvalues ---    0.36839   0.38267   0.38737   0.42389   0.51278
     Eigenvalues ---    0.58910   0.92484   1.19244   2.71649   2.91661
     Eigenvalues ---    3.38267   5.38193   7.00624  17.69926  20.04150
 Eigenvectors required to have negative eigenvalues:
                          B1        A10       A1        A3        A2
   1                    0.67877  -0.48246  -0.34482  -0.30197   0.19666
                          A9        D2        B11       D1        B7
   1                   -0.15992  -0.08543   0.08492   0.06399   0.05443
 Angle between quadratic step and forces=  88.21 degrees.
 Linear search not attempted -- option 19 set.
 Variable       Old X    -DE/DX   Delta X   Delta X   Delta X     New X
                                 (Linear)    (Quad)   (Total)
    B1        4.24184   0.00000   0.00000   0.00000   0.00000   4.24183
    B2        2.03458   0.00000   0.00000   0.00000   0.00000   2.03458
    B3        1.83124   0.00000   0.00000   0.00000   0.00000   1.83124
    B4        2.03465   0.00000   0.00000   0.00000   0.00000   2.03465
    B5        4.10804   0.00000   0.00000   0.00000   0.00000   4.10805
    B6        6.53653   0.00000   0.00000   0.00000   0.00000   6.53653
    B7        5.67566   0.00000   0.00000   0.00002   0.00002   5.67567
    B8        5.16617   0.00000   0.00000   0.00000   0.00000   5.16616
    B9        4.85386   0.00000   0.00000   0.00000   0.00000   4.85386
   B10        2.74261   0.00000   0.00000   0.00000   0.00000   2.74261
   B11        2.66939   0.00000   0.00000   0.00000   0.00000   2.66940
    A1        1.33457   0.00000   0.00000   0.00000   0.00000   1.33458
    A2        1.91291   0.00000   0.00000   0.00000   0.00000   1.91291
    A3        1.48464   0.00000   0.00000   0.00000   0.00000   1.48464
    A4        1.82870   0.00000   0.00000  -0.00001  -0.00001   1.82869
    A5        1.88910   0.00000   0.00000   0.00000   0.00000   1.88910
    A6        1.34506   0.00000   0.00000   0.00000   0.00000   1.34507
    A7        1.69938   0.00000   0.00000   0.00001   0.00001   1.69939
    A8        1.69540   0.00000   0.00000   0.00000   0.00000   1.69540
    A9        1.98185   0.00000   0.00000   0.00000   0.00000   1.98185
   A10        1.29072   0.00000   0.00000   0.00000   0.00000   1.29072
    D1       -3.02619   0.00000   0.00000  -0.00008  -0.00008  -3.02627
    D2        1.12716   0.00000   0.00000  -0.00008  -0.00008   1.12709
    D3       -0.51957   0.00000   0.00000  -0.00008  -0.00008  -0.51965
    D4       -1.37071   0.00000   0.00000  -0.00008  -0.00008  -1.37079
    D5       -1.36904   0.00000   0.00000  -0.00009  -0.00009  -1.36913
    D6       -1.88510   0.00000   0.00000  -0.00008  -0.00008  -1.88518
    D7       -1.46999   0.00000   0.00000  -0.00008  -0.00008  -1.47007
    D8        0.47569   0.00000   0.00000   0.00000   0.00000   0.47570
    D9       -3.04439   0.00000   0.00000   0.00000   0.00000  -3.04439
         Item               Value     Threshold  Converged?
 Maximum Force            0.000004     0.000015     YES
 RMS     Force            0.000001     0.000010     YES
 Maximum Displacement     0.000087     0.000060     NO 
 RMS     Displacement     0.000039     0.000040     YES
 Predicted change in Energy=-2.513387D-11
 GradGradGradGradGradGradGradGradGradGradGradGradGradGradGradGradGradGrad

 1\1\GINC-C41N09\Freq\RB3LYP\6-31++G(d,p)\C3H7O2(1-)\ROOT\27-Apr-2018\1
 \\#N Geom=AllCheck Guess=TCheck SCRF=Check GenChk RB3LYP/6-31++G(d,p) 
 Freq\\Title Card Required\\-1,1\C\O,1,B1\H,1,B2,2,A1\H,2,B3,1,A2,3,D1,
 0\H,1,B4,2,A3,4,D2,0\H,1,B5,2,A4,4,D3,0\H,1,B6,2,A5,4,D4,0\H,1,B7,2,A6
 ,4,D5,0\H,1,B8,2,A7,4,D6,0\C,1,B9,2,A8,4,D7,0\C,1,B10,2,A9,10,D8,0\O,1
 1,B11,1,A10,2,D9,0\\B1=2.24468473\B2=1.07665389\B3=0.96904925\B4=1.076
 6901\B5=2.17388355\B6=3.45898486\B7=3.00342873\B8=2.73381694\B9=2.5685
 4977\B10=1.45132662\B11=1.4125828\A1=76.46546026\A2=109.60142549\A3=85
 .06343399\A4=104.77655407\A5=108.23735491\A6=77.06648986\A7=97.3673468
 3\A8=97.13909731\A9=113.55174362\A10=73.95270757\D1=-173.3877033\D2=64
 .58179152\D3=-29.76925983\D4=-78.53580395\D5=-78.44016715\D6=-108.0081
 1836\D7=-84.2239641\D8=27.25530528\D9=-174.43057921\\Version=EM64L-G09
 RevB.01\State=1-A\HF=-268.9456232\RMSD=1.077e-09\RMSF=3.293e-04\ZeroPo
 int=0.0943296\Thermal=0.101244\Dipole=-0.8410292,-1.2450318,-1.358723\
 DipoleDeriv=0.1598386,-0.0289227,-0.1715217,-0.0411647,0.111323,0.0899
 366,0.0436579,0.4858736,2.3688967,-0.5232243,0.0360575,-0.0871035,0.06
 58244,-0.9829994,-0.0654822,-0.0595381,-0.2049903,-1.6268022,-0.063196
 9,-0.0149852,0.0104332,0.0314672,0.0533982,0.0012725,-0.020047,-0.0503
 19,-0.0279791,-0.1623158,-0.0393248,0.1229501,-0.0716429,0.2434856,0.0
 273892,0.0529535,-0.007276,0.1105137,0.0418809,0.0488939,0.0080758,0.0
 406628,-0.0364878,-0.0026743,-0.0268565,-0.0322376,-0.0520764,-0.32064
 6,-0.0533875,0.0096763,-0.0137115,-0.0701318,0.0073732,0.0305081,0.036
 9941,0.0372574,0.0273202,-0.0528646,-0.0725566,-0.0356546,-0.1298023,-
 0.1066906,-0.050107,-0.1942085,-0.1038222,0.0354733,-0.0176089,0.05941
 77,-0.0045432,-0.0014479,0.030904,0.0441194,0.1366441,-0.0885625,-0.19
 03482,0.0403295,0.0000996,-0.0527189,0.0328039,0.00686,0.0115212,-0.00
 58642,0.0452932,0.0766088,0.096859,-0.0189529,0.1075894,-0.0942008,0.1
 322972,-0.0176563,0.1133757,0.1883401,0.4416012,0.0650586,0.1444852,0.
 0200455,0.6254364,0.1437418,-0.1071477,-0.3256964,0.2138222,-0.5229919
 ,-0.0801047,-0.0050034,-0.0461536,-0.751377,-0.2649273,0.0985926,0.047
 7047,-2.0648809\Polar=54.0521913,0.4727093,68.2604964,-0.3092732,7.562
 5813,89.6219998\PG=C01 [X(C3H7O2)]\NImag=1\\0.67306737,-0.06305908,0.6
 3551882,0.13492743,0.12407917,0.01540402,-0.01770434,-0.00220779,-0.00
 315931,0.46085000,-0.00098373,-0.01315597,0.00030680,0.05288281,0.0104
 1923,-0.01000522,-0.00168696,0.02627995,-0.15768914,-0.01927297,0.0842
 7545,-0.35649571,0.00528088,-0.08061308,0.00066232,-0.00004787,0.00313
 050,0.36323931,0.01004864,-0.05075599,-0.00751637,-0.00073750,0.000275
 35,0.00061122,-0.00389816,0.04770101,-0.07272233,0.00107835,-0.0253595
 0,0.00685996,0.00049407,-0.01100132,0.07922082,0.00745046,0.05507834,-
 0.00018489,0.00046872,0.00173908,-0.45069286,-0.05237895,0.15909222,0.
 00097703,-0.00001215,-0.00090423,0.44951589,0.00021061,0.00045084,0.00
 056105,-0.05234455,-0.00633234,0.01864753,0.00009624,-0.00050406,-0.00
 034900,0.05210844,0.00703217,0.00771380,0.00167926,0.00847098,0.153889
 07,0.01792239,-0.06322083,-0.00074435,0.00043386,-0.00272256,-0.159018
 50,-0.01868583,0.06434989,-0.14743680,0.14858616,0.00510200,0.00088306
 ,-0.00144806,0.00096498,-0.00737926,0.02120685,0.00257984,0.00005719,-
 0.00038630,0.00034706,0.14287032,0.14656195,-0.27653129,-0.03001556,-0
 .00126430,0.00153402,0.00013784,-0.00339059,0.00356302,-0.00027320,0.0
 0001255,-0.00046825,0.00107277,-0.15128946,0.28336273,0.00951489,-0.01
 599601,-0.01334771,-0.00122431,0.00188740,-0.01004451,-0.00259483,0.00
 474300,0.00321029,-0.00016729,0.00083653,-0.00123084,-0.00945978,0.029
 43831,0.03773548,-0.00911603,0.00140572,0.00427388,0.00058991,0.000075
 96,-0.00151496,0.00060827,-0.00069557,0.00067439,0.00020771,-0.0001668
 8,-0.00060335,0.00059774,-0.00023873,0.00014497,0.31279311,-0.02252612
 ,-0.00059049,0.00144365,0.00037458,0.00022224,-0.00106768,-0.00107572,
 -0.00235371,0.00119204,0.00003745,-0.00001630,-0.00035604,0.00041275,0
 .00093146,-0.00063479,0.00964481,0.05997635,-0.02147394,0.00217785,-0.
 00295018,0.00058599,0.00009036,0.00066732,-0.00172570,-0.00305865,0.00
 081585,0.00007655,-0.00006029,-0.00024277,0.00133244,0.00056127,0.0002
 4365,-0.00227190,-0.00503593,0.04709254,-0.00135715,0.00148933,-0.0007
 3781,0.00026644,-0.00009675,0.00002155,0.00032215,0.00041503,0.0000176
 0,0.00006794,-0.00005718,-0.00004965,0.00052627,0.00049222,0.00004326,
 0.00062827,-0.00074772,0.00040377,0.07151516,0.00551924,-0.00357213,0.
 00001568,-0.00009390,0.00017303,-0.00066824,0.00010141,0.00042945,0.00
 004936,0.00003572,-0.00004917,0.00003882,-0.00095510,-0.00131737,0.000
 54103,0.00047270,0.00127828,0.00050982,0.05225412,0.16741412,0.0001854
 0,0.00187890,0.00037665,-0.00001643,-0.00094113,-0.00037632,0.00006322
 ,0.00010994,-0.00015423,-0.00001498,0.00013797,0.00004558,0.00000278,0
 .00025563,0.00016252,0.00078123,-0.00050464,0.00008262,0.05819024,0.12
 838683,0.18255038,0.00026485,-0.00032464,0.00075606,-0.00030303,0.0004
 9856,-0.00019737,0.00005647,0.00001729,0.00023153,-0.00006308,0.000103
 32,0.00007512,-0.00005990,-0.00001254,0.00004380,-0.00012213,-0.000796
 13,0.00032599,0.00182485,0.00445590,-0.00950778,0.06746839,-0.00118459
 ,0.00134459,0.00358279,0.00036248,0.00173596,-0.00085794,-0.00001950,-
 0.00026908,-0.00011919,0.00010559,-0.00041661,-0.00037141,0.00011698,0
 .00012453,-0.00007940,0.00068442,0.00093293,-0.00077437,0.00691069,0.0
 0789533,-0.01941793,0.02437240,0.07828852,0.00000290,0.00031761,-0.001
 49394,-0.00006017,-0.00023193,0.00054331,-0.00006097,0.00005392,0.0001
 0662,0.00000610,-0.00001560,0.00010213,0.00009788,0.00002817,0.0001264
 9,-0.00065430,0.00013583,0.00028943,0.00574499,0.00732432,-0.01805892,
 -0.07006292,-0.08803100,0.28257545,0.00030634,-0.00119072,-0.00026352,
 0.00052816,0.00001214,0.00018259,0.00063764,0.00080572,0.00002922,0.00
 009469,-0.00011537,-0.00014838,0.00023002,0.00002385,0.00015448,0.0000
 6733,0.00352899,-0.00070572,-0.00789843,-0.00060590,0.00030763,-0.0070
 1886,-0.00044002,-0.00031049,0.33282656,0.00180254,0.00148706,-0.00042
 921,-0.00015281,-0.00003113,0.00005984,-0.00066034,-0.00036167,-0.0001
 7270,-0.00003369,-0.00001279,0.00010955,-0.00024093,0.00012660,-0.0001
 3541,0.00266287,-0.00522015,0.00135235,-0.02070839,-0.00218794,0.00181
 648,-0.01051983,-0.00159887,-0.00066587,0.02375715,0.05128560,0.000835
 78,-0.00030713,0.00138444,-0.00037336,0.00010899,-0.00021388,0.0001162
 3,-0.00024498,0.00003727,-0.00011347,0.00013473,0.00005118,-0.00009518
 ,0.00001001,-0.00009883,-0.00038985,0.00102406,0.00066611,-0.02312858,
 -0.00132504,0.00066835,0.02916626,0.00190583,0.00062732,-0.00827473,-0
 .00009301,0.04465572,0.00546274,-0.00782714,0.00223575,-0.00027007,-0.
 00060853,-0.00039506,0.00062023,-0.00124730,-0.00059354,-0.00014179,0.
 00013718,-0.00013782,-0.00100521,-0.00189604,0.00021714,-0.01392849,0.
 02957392,-0.00500132,-0.07038766,-0.04885564,-0.05137529,-0.06661035,-
 0.02199090,0.06360817,-0.30447041,-0.02578036,0.00806637,0.55276098,0.
 00872853,-0.02449162,0.00374598,-0.00002956,-0.00029863,0.00018349,0.0
 0102586,0.00148211,-0.00016240,-0.00004924,0.00009014,-0.00002811,-0.0
 0109443,-0.00092013,0.00077267,-0.00089349,-0.00055618,-0.00121715,-0.
 04896590,-0.15175735,-0.11473142,-0.02278532,-0.07433679,0.07907807,-0
 .02258972,-0.04766918,-0.00052562,0.03656498,0.48170272,0.01343206,-0.
 01852269,-0.00041241,0.00016580,0.00093312,0.00021304,0.00012655,0.001
 03060,0.00027569,0.00012988,-0.00034808,0.00005136,-0.00218449,-0.0034
 3339,0.00075382,-0.00158332,0.00041397,0.00316695,-0.05172133,-0.11410
 443,-0.17023407,0.06284343,0.07721950,-0.26099535,0.00764184,0.0002065
 8,-0.04652016,-0.01092090,0.01229034,0.55616993,-0.11539557,-0.0902948
 3,-0.08372779,-0.00065763,0.00140625,0.00631624,-0.01030359,-0.0264748
 7,0.00234349,-0.00002448,0.00064455,0.00182574,0.01068306,0.01496020,-
 0.00237561,-0.28464048,-0.00195846,-0.00653972,0.00435550,-0.01190772,
 0.00153618,0.00413393,-0.01214598,0.00295945,-0.01873181,0.03187034,-0
 .00537466,-0.10923503,0.05238615,-0.00882540,0.60700936,-0.08714289,-0
 .24923805,-0.14022594,0.00245193,0.00078434,0.01121190,0.00259481,0.00
 175823,-0.00152685,-0.00008398,0.00049452,0.00023473,-0.01525969,-0.01
 429352,-0.00103630,0.00010332,-0.04982155,-0.00421678,0.01050815,-0.02
 183687,0.00494841,0.00274494,-0.00535017,0.00024214,-0.00235015,0.0012
 2009,0.00059743,0.05411222,-0.16664909,0.00554168,0.05676659,0.5880536
 9,-0.05151285,-0.07855150,-0.01386937,0.00094746,0.00165741,-0.0040020
 4,-0.00003614,-0.00745206,-0.00553915,0.00009003,-0.00040014,-0.001911
 45,-0.00266833,0.00046238,-0.00646146,-0.01113893,-0.00386986,-0.04625
 082,0.01141261,-0.02403574,0.00290881,-0.01328375,0.02666107,-0.005339
 53,0.00192785,-0.00114250,-0.00093538,-0.00911736,0.00798061,-0.074468
 51,0.02291481,0.01889000,0.33078777,-0.03141080,0.00767338,0.01946732,
 0.00584804,0.00068816,0.00009368,0.00705515,0.00057201,-0.01773675,0.0
 0018666,-0.00023006,-0.00314873,0.00003350,-0.00395913,0.00570328,-0.0
 0768520,-0.01646835,0.03499356,0.00013665,-0.00042082,-0.00015221,0.00
 042887,0.00322841,-0.00127063,0.00342877,-0.00199656,-0.00043482,0.007
 20505,-0.00229786,-0.00910414,-0.08719324,-0.02444525,0.05046459,0.101
 96657,0.00202491,-0.02046575,0.04445195,0.00075860,0.00467390,-0.00729
 804,-0.00000702,-0.00096466,-0.00766093,-0.00021047,-0.00026814,-0.002
 04997,0.00035123,0.00388821,-0.02033703,-0.01305515,-0.00478288,0.0096
 7152,-0.00149360,0.00353062,-0.00193904,0.00224603,-0.00835033,0.00176
 433,-0.00083598,0.00296237,-0.00128528,-0.01218240,-0.01659600,0.03877
 280,-0.01525222,-0.08512162,0.05980034,0.03765606,0.12149429,-0.010897
 91,-0.01614685,0.00551708,0.00007443,-0.00295450,-0.02312018,0.0031177
 5,0.00383906,-0.01474730,-0.00091539,-0.00045886,-0.00374268,0.0039807
 8,0.00175577,-0.01104889,0.01228215,0.00725938,-0.00358071,-0.00019666
 ,0.00326759,0.00202864,-0.00039038,0.00028204,0.00151700,-0.00054076,-
 0.00090610,-0.00032214,0.00341386,0.01261355,-0.00800029,0.06894726,0.
 10533958,-0.17491889,-0.07887514,-0.11389066,0.23041835\\-0.00165190,0
 .00045345,0.00007636,-0.00084657,-0.00000509,0.00000010,0.00000002,-0.
 00049706,-0.00000006,0.,-0.00000014,-0.00000003,0.,0.,-0.00000001,-0.0
 0000001,0.00000004,0.00000007,-0.00000008,-0.00000029,-0.00000040,-0.0
 0000038,0.00000049,0.00000064,0.00000093,-0.00000015,0.00000018,-0.000
 00020,0.00000018,-0.00000061,-0.00000015,0.,0.,-0.00000002,0.00000003,
 0.00000002\\\@


 I do not feel obliged to believe that the same God who
 has endowed us with sense, reason, and intellect has
 intended us to forgo their use.
                   --Galileo Galilei
 Job cpu time:  0 days  0 hours  6 minutes 54.1 seconds.
 File lengths (MBytes):  RWF=   1312 Int=      0 D2E=      0 Chk=     32 Scr=     32
 Normal termination of Gaussian 09 at Fri Apr 27 11:11:43 2018.
