 Entering Gaussian System, Link 0=g09
 Input=H2O-mid-field-3.gjf
 Output=H2O-mid-field-3.log
 Initial command:
 /share/home/zxchen/g09/l1.exe /scratch/zxchen/Gau-18727.inp -scrdir=/scratch/zxchen/
 Entering Link 1 = /share/home/zxchen/g09/l1.exe PID=     18728.
  
 Copyright (c) 1988,1990,1992,1993,1995,1998,2003,2009,2010,
            Gaussian, Inc.  All Rights Reserved.
  
 This is part of the Gaussian(R) 09 program.  It is based on
 the Gaussian(R) 03 system (copyright 2003, Gaussian, Inc.),
 the Gaussian(R) 98 system (copyright 1998, Gaussian, Inc.),
 the Gaussian(R) 94 system (copyright 1995, Gaussian, Inc.),
 the Gaussian 92(TM) system (copyright 1992, Gaussian, Inc.),
 the Gaussian 90(TM) system (copyright 1990, Gaussian, Inc.),
 the Gaussian 88(TM) system (copyright 1988, Gaussian, Inc.),
 the Gaussian 86(TM) system (copyright 1986, Carnegie Mellon
 University), and the Gaussian 82(TM) system (copyright 1983,
 Carnegie Mellon University). Gaussian is a federally registered
 trademark of Gaussian, Inc.
  
 This software contains proprietary and confidential information,
 including trade secrets, belonging to Gaussian, Inc.
  
 This software is provided under written license and may be
 used, copied, transmitted, or stored only in accord with that
 written license.
  
 The following legend is applicable only to US Government
 contracts under FAR:
  
                    RESTRICTED RIGHTS LEGEND
  
 Use, reproduction and disclosure by the US Government is
 subject to restrictions as set forth in subparagraphs (a)
 and (c) of the Commercial Computer Software - Restricted
 Rights clause in FAR 52.227-19.
  
 Gaussian, Inc.
 340 Quinnipiac St., Bldg. 40, Wallingford CT 06492
  
  
 ---------------------------------------------------------------
 Warning -- This program may not be used in any manner that
 competes with the business of Gaussian, Inc. or will provide
 assistance to any competitor of Gaussian, Inc.  The licensee
 of this program is prohibited from giving any competitor of
 Gaussian, Inc. access to this program.  By using this program,
 the user acknowledges that Gaussian, Inc. is engaged in the
 business of creating and licensing software in the field of
 computational chemistry and represents and warrants to the
 licensee that it is not a competitor of Gaussian, Inc. and that
 it will not use this program in any manner prohibited above.
 ---------------------------------------------------------------
  

 Cite this work as:
 Gaussian 09, Revision B.01,
 M. J. Frisch, G. W. Trucks, H. B. Schlegel, G. E. Scuseria, 
 M. A. Robb, J. R. Cheeseman, G. Scalmani, V. Barone, B. Mennucci, 
 G. A. Petersson, H. Nakatsuji, M. Caricato, X. Li, H. P. Hratchian, 
 A. F. Izmaylov, J. Bloino, G. Zheng, J. L. Sonnenberg, M. Hada, 
 M. Ehara, K. Toyota, R. Fukuda, J. Hasegawa, M. Ishida, T. Nakajima, 
 Y. Honda, O. Kitao, H. Nakai, T. Vreven, J. A. Montgomery, Jr., 
 J. E. Peralta, F. Ogliaro, M. Bearpark, J. J. Heyd, E. Brothers, 
 K. N. Kudin, V. N. Staroverov, T. Keith, R. Kobayashi, J. Normand, 
 K. Raghavachari, A. Rendell, J. C. Burant, S. S. Iyengar, J. Tomasi, 
 M. Cossi, N. Rega, J. M. Millam, M. Klene, J. E. Knox, J. B. Cross, 
 V. Bakken, C. Adamo, J. Jaramillo, R. Gomperts, R. E. Stratmann, 
 O. Yazyev, A. J. Austin, R. Cammi, C. Pomelli, J. W. Ochterski, 
 R. L. Martin, K. Morokuma, V. G. Zakrzewski, G. A. Voth, 
 P. Salvador, J. J. Dannenberg, S. Dapprich, A. D. Daniels, 
 O. Farkas, J. B. Foresman, J. V. Ortiz, J. Cioslowski, 
 and D. J. Fox, Gaussian, Inc., Wallingford CT, 2010.
 
 ******************************************
 Gaussian 09:  EM64L-G09RevB.01 12-Aug-2010
                27-Apr-2018 
 ******************************************
 %chk=H2O-mid-field-3.chk
 %nprocshared=24
 Will use up to   24 processors via shared memory.
 ----------------------------------------------------------------------
 # opt=(maxcycle=300,calcfc,tight,ts,noeigen,z-matrix) freq b3lyp/6-31+
 +g(d,p) field=z+50
 ----------------------------------------------------------------------
 1/5=1,6=300,7=10,10=4,11=1,14=-1,18=40,26=3,38=1/1,3;
 2/12=2,17=6,18=5,29=3,40=1/2;
 3/5=1,6=6,7=1111,11=2,14=3,15=50,16=1,25=1,30=1,71=2,74=-5/1,2,3;
 4//1;
 5/5=2,38=5/2;
 8/6=4,10=90,11=11/1;
 11/6=1,8=1,9=11,15=111,16=1/1,2,10;
 10/6=1,7=6,13=1/2;
 6/7=2,8=2,9=2,10=2,28=1/1;
 7/10=1,18=20,25=1/1,2,3,16;
 1/5=1,6=300,7=10,10=4,11=1,14=-1,18=40/3(2);
 2/29=3/2;
 99//99;
 2/29=3/2;
 3/5=1,6=6,7=1111,11=2,14=3,15=50,16=1,25=1,30=1,71=1,74=-5/1,2,3;
 4/5=5,16=3/1;
 5/5=2,38=5/2;
 7//1,2,3,16;
 1/5=1,6=300,7=10,11=1,14=-1,18=40/3(-5);
 2/29=3/2;
 6/7=2,8=2,9=2,10=2,19=2,28=1/1;
 99/9=1/99;
 -------------------
 Title Card Required
 -------------------
 Symbolic Z-matrix:
 Charge =  0 Multiplicity = 1
 C
 O                    1    B1
 H                    1    B2       2    A1
 H                    1    B3       2    A2       3    D1       0
 H                    1    B4       2    A3       3    D2       0
 H                    1    B5       2    A4       5    D3       0
 H                    1    B6       2    A5       5    D4       0
 H                    2    B7       1    A6       5    D5       0
 H                    1    B8       2    A7       8    D6       0
 H                    2    B9       1    A8       5    D7       0
 C                    1    B10      2    A9       10   D8       0
 C                    1    B11      11   A10      2    D9       0
 O                    11   B12      1    A11      12   D10      0
       Variables:
  B1                    2.25527                  
  B2                    2.15395                  
  B3                    1.70803                  
  B4                    1.0869                   
  B5                    2.15139                  
  B6                    2.15037                  
  B7                    1.05717                  
  B8                    2.10182                  
  B9                    0.9654                   
  B10                   1.44469                  
  B11                   1.48745                  
  B12                   1.31417                  
  A1                   89.00502                  
  A2                  125.80087                  
  A3                   87.12473                  
  A4                  133.23246                  
  A5                  103.93366                  
  A6                   74.12207                  
  A7                   84.37816                  
  A8                  109.01085                  
  A9                   84.07323                  
  A10                 124.39392                  
  A11                 116.44632                  
  D1                   43.01267                  
  D2                  143.61227                  
  D3                  102.21261                  
  D4                  148.33482                  
  D5                   88.10711                  
  D6                 -169.1232                   
  D7                  -14.996                    
  D8                 -131.11286                  
  D9                  109.12177                  
  D10                 157.01469                  
 

 GradGradGradGradGradGradGradGradGradGradGradGradGradGradGradGradGradGrad
 Berny optimization.
 Initialization pass.
                       ----------------------------
                       !    Initial Parameters    !
                       ! (Angstroms and Degrees)  !
 ----------------------                            ----------------------
 !      Name          Value   Derivative information (Atomic Units)     !
 ------------------------------------------------------------------------
 !       B1          2.2553   calculate D2E/DX2 analytically            !
 !       B2          2.1539   calculate D2E/DX2 analytically            !
 !       B3          1.708    calculate D2E/DX2 analytically            !
 !       B4          1.0869   calculate D2E/DX2 analytically            !
 !       B5          2.1514   calculate D2E/DX2 analytically            !
 !       B6          2.1504   calculate D2E/DX2 analytically            !
 !       B7          1.0572   calculate D2E/DX2 analytically            !
 !       B8          2.1018   calculate D2E/DX2 analytically            !
 !       B9          0.9654   calculate D2E/DX2 analytically            !
 !       B10         1.4447   calculate D2E/DX2 analytically            !
 !       B11         1.4874   calculate D2E/DX2 analytically            !
 !       B12         1.3142   calculate D2E/DX2 analytically            !
 !       A1         89.005    calculate D2E/DX2 analytically            !
 !       A2        125.8009   calculate D2E/DX2 analytically            !
 !       A3         87.1247   calculate D2E/DX2 analytically            !
 !       A4        133.2325   calculate D2E/DX2 analytically            !
 !       A5        103.9337   calculate D2E/DX2 analytically            !
 !       A6         74.1221   calculate D2E/DX2 analytically            !
 !       A7         84.3782   calculate D2E/DX2 analytically            !
 !       A8        109.0109   calculate D2E/DX2 analytically            !
 !       A9         84.0732   calculate D2E/DX2 analytically            !
 !       A10       124.3939   calculate D2E/DX2 analytically            !
 !       A11       116.4463   calculate D2E/DX2 analytically            !
 !       D1         43.0127   calculate D2E/DX2 analytically            !
 !       D2        143.6123   calculate D2E/DX2 analytically            !
 !       D3        102.2126   calculate D2E/DX2 analytically            !
 !       D4        148.3348   calculate D2E/DX2 analytically            !
 !       D5         88.1071   calculate D2E/DX2 analytically            !
 !       D6       -169.1232   calculate D2E/DX2 analytically            !
 !       D7        -14.996    calculate D2E/DX2 analytically            !
 !       D8       -131.1129   calculate D2E/DX2 analytically            !
 !       D9        109.1218   calculate D2E/DX2 analytically            !
 !       D10       157.0147   calculate D2E/DX2 analytically            !
 ------------------------------------------------------------------------
 Trust Radius=3.00D-01 FncErr=1.00D-07 GrdErr=1.00D-06
 Number of steps in this run=    100 maximum allowed number of steps=    100.
 Search for a saddle point of order  1.
 GradGradGradGradGradGradGradGradGradGradGradGradGradGradGradGradGradGrad

 ---------------------------------------------------------------------------------------------------
                            Z-MATRIX (ANGSTROMS AND DEGREES)
   CD    Cent   Atom    N1       Length/X        N2       Alpha/Y        N3        Beta/Z          J
 ---------------------------------------------------------------------------------------------------
      1      1  C 
      2      2  O        1   2.255267(     1)
      3      3  H        1   2.153947(     2)      2   89.005(    13)
      4      4  H        1   1.708025(     3)      2  125.801(    14)      3   43.013(    24)      0
      5      5  H        1   1.086898(     4)      2   87.125(    15)      3  143.612(    25)      0
      6      6  H        1   2.151386(     5)      2  133.232(    16)      5  102.213(    26)      0
      7      7  H        1   2.150374(     6)      2  103.934(    17)      5  148.335(    27)      0
      8      8  H        2   1.057171(     7)      1   74.122(    18)      5   88.107(    28)      0
      9      9  H        1   2.101816(     8)      2   84.378(    19)      8 -169.123(    29)      0
     10     10  H        2   0.965397(     9)      1  109.011(    20)      5  -14.996(    30)      0
     11     11  C        1   1.444692(    10)      2   84.073(    21)     10 -131.113(    31)      0
     12     12  C        1   1.487447(    11)     11  124.394(    22)      2  109.122(    32)      0
     13     13  O       11   1.314171(    12)      1  116.446(    23)     12  157.015(    33)      0
 ---------------------------------------------------------------------------------------------------
                         Z-Matrix orientation:                         
 ---------------------------------------------------------------------
 Center     Atomic      Atomic             Coordinates (Angstroms)
 Number     Number       Type             X           Y           Z
 ---------------------------------------------------------------------
      1          6           0        0.000000    0.000000    0.000000
      2          8           0        0.000000    0.000000    2.255267
      3          1           0        2.153622    0.000000    0.037403
      4          1           0        1.012937   -0.944998   -0.999143
      5          1           0       -0.873874   -0.643986    0.054521
      6          1           0       -0.641916    1.429989   -1.473613
      7          1           0        0.780054    1.935846   -0.517806
      8          1           0        0.575867   -0.838054    1.966037
      9          1           0       -0.838016    1.916498    0.205899
     10          1           0       -0.849861   -0.332915    2.569743
     11          6           0        1.274661   -0.663417    0.149175
     12          6           0       -0.169113    1.395365   -0.486679
     13          8           0        1.315771   -1.668916    0.994355
 ---------------------------------------------------------------------
                    Distance matrix (angstroms):
                    1          2          3          4          5
     1  C    0.000000
     2  O    2.255267   0.000000
     3  H    2.153947   3.091442   0.000000
     4  H    1.708025   3.536983   1.807930   0.000000
     5  H    1.086898   2.453907   3.095278   2.181942   0.000000
     6  H    2.151386   4.044932   3.484691   2.933296   2.586575
     7  H    2.150374   3.470723   2.437713   2.930048   3.117462
     8  H    2.213427   1.057171   2.628931   2.999127   2.406929
     9  H    2.101816   2.928335   3.556861   3.614736   2.565206
    10  H    2.727027   0.965397   3.942651   4.072053   2.534499
    11  C    1.444692   2.549609   1.106882   1.210959   2.150706
    12  C    1.487447   3.081219   2.759856   2.671546   2.224531
    13  O    2.346332   2.471120   2.098340   2.142382   2.593899
                    6          7          8          9         10
     6  H    0.000000
     7  H    1.786465   0.000000
     8  H    4.296302   3.729033   0.000000
     9  H    1.759519   1.772646   3.561560   0.000000
    10  H    4.415858   4.163756   1.628597   3.263091   0.000000
    11  C    3.269412   2.728675   1.954431   3.335054   3.237588
    12  C    1.094889   1.092706   3.399849   1.094840   3.576602
    13  O    4.418893   3.945621   1.477145   4.256249   2.992776
                   11         12         13
    11  C    0.000000
    12  C    2.593718   0.000000
    13  O    1.314171   3.713241   0.000000
 Stoichiometry    C3H8O2
 Framework group  C1[X(C3H8O2)]
 Deg. of freedom    33
 Full point group                 C1      NOp   1
 Largest Abelian subgroup         C1      NOp   1
 Largest concise Abelian subgroup C1      NOp   1
                         Standard orientation:                         
 ---------------------------------------------------------------------
 Center     Atomic      Atomic             Coordinates (Angstroms)
 Number     Number       Type             X           Y           Z
 ---------------------------------------------------------------------
      1          6           0       -0.616509   -0.193225    0.421214
      2          8           0        0.658307    1.560650   -0.199268
      3          1           0        0.161921   -1.303101   -1.252617
      4          1           0       -0.119934   -1.827131    0.454592
      5          1           0       -0.412424    0.092449    1.449847
      6          1           0       -2.742281   -0.513708    0.503954
      7          1           0       -2.079463   -0.350485   -1.146951
      8          1           0        1.322677    0.746326   -0.084811
      9          1           0       -2.224912    1.061482   -0.085127
     10          1           0        0.785653    2.141515    0.561239
     11          6           0        0.411078   -0.976817   -0.224683
     12          6           0       -1.992314   -0.008003   -0.112969
     13          8           0        1.653597   -0.683035    0.086581
 ---------------------------------------------------------------------
 Rotational constants (GHZ):      6.3596716      3.7844084      2.6018487
 Standard basis: 6-31++G(d,p) (6D, 7F)
 The following finite field(s) will be applied:
 An electric field of              0.0000  0.0000  0.0050
 There are   143 symmetry adapted basis functions of A   symmetry.
 Integral buffers will be    131072 words long.
 Raffenetti 2 integral format.
 Two-electron integral symmetry is turned on.
   143 basis functions,   224 primitive gaussians,   143 cartesian basis functions
    21 alpha electrons       21 beta electrons
       nuclear repulsion energy       188.5257148126 Hartrees.
 NAtoms=   13 NActive=   13 NUniq=   13 SFac= 1.00D+00 NAtFMM=   50 NAOKFM=F Big=F
 One-electron integrals computed using PRISM.
 PrsmSu:  requested number of processors reduced to:  10 ShMem   1 Linda.
 NBasis=   143 RedAO= T  NBF=   143
 NBsUse=   143 1.00D-06 NBFU=   143
 The nuclear repulsion energy is now       188.5257148126 hartrees.
 Harris functional with IExCor=  402 diagonalized for initial guess.
 ExpMin= 3.60D-02 ExpMax= 5.48D+03 ExpMxC= 8.25D+02 IAcc=3 IRadAn=         0 AccDes= 0.00D+00
 HarFok:  IExCor=  402 AccDes= 0.00D+00 IRadAn=         0 IDoV= 1
 ScaDFX=  1.000000  1.000000  1.000000  1.000000
 FoFCou: FMM=F IPFlag=           0 FMFlag=      100000 FMFlg1=           0
         NFxFlg=           0 DoJE=T BraDBF=F KetDBF=T FulRan=T
         Omega=  0.000000  0.000000  1.000000  0.000000  0.000000 ICntrl=     500 IOpCl=  0
         NMat0=    1 NMatS0=    1 NMatT0=    0 NMatD0=    1 NMtDS0=    0 NMtDT0=    0
         I1Cent=           4 NGrid=           0.
 Petite list used in FoFCou.
 Initial guess orbital symmetries:
       Occupied  (A) (A) (A) (A) (A) (A) (A) (A) (A) (A) (A) (A)
                 (A) (A) (A) (A) (A) (A) (A) (A) (A)
       Virtual   (A) (A) (A) (A) (A) (A) (A) (A) (A) (A) (A) (A)
                 (A) (A) (A) (A) (A) (A) (A) (A) (A) (A) (A) (A)
                 (A) (A) (A) (A) (A) (A) (A) (A) (A) (A) (A) (A)
                 (A) (A) (A) (A) (A) (A) (A) (A) (A) (A) (A) (A)
                 (A) (A) (A) (A) (A) (A) (A) (A) (A) (A) (A) (A)
                 (A) (A) (A) (A) (A) (A) (A) (A) (A) (A) (A) (A)
                 (A) (A) (A) (A) (A) (A) (A) (A) (A) (A) (A) (A)
                 (A) (A) (A) (A) (A) (A) (A) (A) (A) (A) (A) (A)
                 (A) (A) (A) (A) (A) (A) (A) (A) (A) (A) (A) (A)
                 (A) (A) (A) (A) (A) (A) (A) (A) (A) (A) (A) (A)
                 (A) (A)
 The electronic state of the initial guess is 1-A.
 Requested convergence on RMS density matrix=1.00D-08 within 128 cycles.
 Requested convergence on MAX density matrix=1.00D-06.
 Requested convergence on             energy=1.00D-06.
 No special actions if energy rises.
 SCF Done:  E(RB3LYP) =  -269.493198880     A.U. after   16 cycles
             Convg  =    0.6732D-08             -V/T =  2.0093
 Range of M.O.s used for correlation:     1   143
 NBasis=   143 NAE=    21 NBE=    21 NFC=     0 NFV=     0
 NROrb=    143 NOA=    21 NOB=    21 NVA=   122 NVB=   122

 **** Warning!!: The largest alpha MO coefficient is  0.38366363D+02

 PrsmSu:  requested number of processors reduced to:  10 ShMem   1 Linda.
 PrsmSu:  requested number of processors reduced to:  17 ShMem   1 Linda.
 Symmetrizing basis deriv contribution to polar:
 IMax=3 JMax=2 DiffMx= 0.00D+00
 G2DrvN: will do     3 centers at a time, making    5 passes doing MaxLOS=2.
 Estimated number of processors is:   15
 Calling FoFCou, ICntrl=  3107 FMM=F I1Cent=   0 AccDes= 0.00D+00.
 CoulSu:  requested number of processors reduced to:  15 ShMem   1 Linda.
 Calling FoFCou, ICntrl=  3107 FMM=F I1Cent=   0 AccDes= 0.00D+00.
 CoulSu:  requested number of processors reduced to:  15 ShMem   1 Linda.
 Calling FoFCou, ICntrl=  3107 FMM=F I1Cent=   0 AccDes= 0.00D+00.
 CoulSu:  requested number of processors reduced to:  15 ShMem   1 Linda.
 Calling FoFCou, ICntrl=  3107 FMM=F I1Cent=   0 AccDes= 0.00D+00.
 CoulSu:  requested number of processors reduced to:  15 ShMem   1 Linda.
 Calling FoFCou, ICntrl=  3107 FMM=F I1Cent=   0 AccDes= 0.00D+00.
 CoulSu:  requested number of processors reduced to:  15 ShMem   1 Linda.
 FoFDir/FoFCou used for L=0 through L=2.
 End of G2Drv Frequency-dependent properties file   721 does not exist.
 End of G2Drv Frequency-dependent properties file   722 does not exist.
          IDoAtm=1111111111111
          Differentiating once with respect to nuclear coordinates.
 PrRfSu:  requested number of processors reduced to:  16 ShMem   1 Linda.
 CalDSu:  requested number of processors reduced to:  22 ShMem   1 Linda.
 PrRfSu:  requested number of processors reduced to:  16 ShMem   1 Linda.
 CalDSu:  requested number of processors reduced to:  22 ShMem   1 Linda.
          There are    42 degrees of freedom in the 1st order CPHF.  IDoFFX=5.
     36 vectors produced by pass  0 Test12= 6.10D-11 2.38D-07 XBig12= 1.41D-01 1.80D-01.
 AX will form    36 AO Fock derivatives at one time.
 PrRfSu:  requested number of processors reduced to:  15 ShMem   1 Linda.
 CalDSu:  requested number of processors reduced to:  19 ShMem   1 Linda.
     36 vectors produced by pass  1 Test12= 6.10D-11 2.38D-07 XBig12= 2.73D-02 5.58D-02.
 PrRfSu:  requested number of processors reduced to:  15 ShMem   1 Linda.
 CalDSu:  requested number of processors reduced to:  19 ShMem   1 Linda.
     36 vectors produced by pass  2 Test12= 6.10D-11 2.38D-07 XBig12= 1.74D-04 1.88D-03.
 PrRfSu:  requested number of processors reduced to:  15 ShMem   1 Linda.
 CalDSu:  requested number of processors reduced to:  19 ShMem   1 Linda.
     36 vectors produced by pass  3 Test12= 6.10D-11 2.38D-07 XBig12= 6.38D-07 1.05D-04.
 PrRfSu:  requested number of processors reduced to:  15 ShMem   1 Linda.
 CalDSu:  requested number of processors reduced to:  19 ShMem   1 Linda.
     17 vectors produced by pass  4 Test12= 6.10D-11 2.38D-07 XBig12= 1.29D-09 5.56D-06.
 PrRfSu:  requested number of processors reduced to:  17 ShMem   1 Linda.
 CalDSu:  requested number of processors reduced to:  23 ShMem   1 Linda.
 Inverted reduced A of dimension   161 with in-core refinement.
 End of Minotr Frequency-dependent properties file   721 does not exist.
 End of Minotr Frequency-dependent properties file   722 does not exist.

 **********************************************************************

            Population analysis using the SCF density.

 **********************************************************************

 Orbital symmetries:
       Occupied  (A) (A) (A) (A) (A) (A) (A) (A) (A) (A) (A) (A)
                 (A) (A) (A) (A) (A) (A) (A) (A) (A)
       Virtual   (A) (A) (A) (A) (A) (A) (A) (A) (A) (A) (A) (A)
                 (A) (A) (A) (A) (A) (A) (A) (A) (A) (A) (A) (A)
                 (A) (A) (A) (A) (A) (A) (A) (A) (A) (A) (A) (A)
                 (A) (A) (A) (A) (A) (A) (A) (A) (A) (A) (A) (A)
                 (A) (A) (A) (A) (A) (A) (A) (A) (A) (A) (A) (A)
                 (A) (A) (A) (A) (A) (A) (A) (A) (A) (A) (A) (A)
                 (A) (A) (A) (A) (A) (A) (A) (A) (A) (A) (A) (A)
                 (A) (A) (A) (A) (A) (A) (A) (A) (A) (A) (A) (A)
                 (A) (A) (A) (A) (A) (A) (A) (A) (A) (A) (A) (A)
                 (A) (A) (A) (A) (A) (A) (A) (A) (A) (A) (A) (A)
                 (A) (A)
 The electronic state is 1-A.
 Alpha  occ. eigenvalues --  -19.15362 -19.09285 -10.29307 -10.26122 -10.22835
 Alpha  occ. eigenvalues --   -1.01016  -0.96838  -0.83192  -0.71440  -0.60397
 Alpha  occ. eigenvalues --   -0.53434  -0.48846  -0.46907  -0.46275  -0.42393
 Alpha  occ. eigenvalues --   -0.40807  -0.39961  -0.36918  -0.31279  -0.24215
 Alpha  occ. eigenvalues --   -0.23776
 Alpha virt. eigenvalues --   -0.08929  -0.03759  -0.01238   0.00052   0.01243
 Alpha virt. eigenvalues --    0.03471   0.04259   0.05228   0.06321   0.07030
 Alpha virt. eigenvalues --    0.08474   0.09659   0.09699   0.10508   0.11532
 Alpha virt. eigenvalues --    0.12231   0.13373   0.13884   0.14658   0.16205
 Alpha virt. eigenvalues --    0.16843   0.18074   0.19113   0.20372   0.21496
 Alpha virt. eigenvalues --    0.21816   0.23840   0.25284   0.26417   0.28229
 Alpha virt. eigenvalues --    0.29767   0.30547   0.32146   0.33833   0.34702
 Alpha virt. eigenvalues --    0.35561   0.38075   0.40353   0.41557   0.43584
 Alpha virt. eigenvalues --    0.63018   0.65721   0.66511   0.71959   0.72607
 Alpha virt. eigenvalues --    0.75496   0.76254   0.79227   0.83752   0.88280
 Alpha virt. eigenvalues --    0.90532   0.94129   0.96399   0.99135   1.04929
 Alpha virt. eigenvalues --    1.08568   1.09395   1.12787   1.14750   1.22208
 Alpha virt. eigenvalues --    1.23575   1.25244   1.30919   1.32596   1.35205
 Alpha virt. eigenvalues --    1.36494   1.41941   1.45645   1.49365   1.54438
 Alpha virt. eigenvalues --    1.58411   1.60640   1.68399   1.69999   1.76527
 Alpha virt. eigenvalues --    1.77981   1.83470   1.87072   1.89543   1.91351
 Alpha virt. eigenvalues --    1.95653   1.99261   2.01666   2.07978   2.09393
 Alpha virt. eigenvalues --    2.11399   2.14850   2.20088   2.25658   2.30607
 Alpha virt. eigenvalues --    2.35609   2.36667   2.39144   2.41881   2.49612
 Alpha virt. eigenvalues --    2.56158   2.57153   2.60767   2.66134   2.67310
 Alpha virt. eigenvalues --    2.69051   2.75899   2.81565   2.83032   2.85323
 Alpha virt. eigenvalues --    2.91651   2.96286   2.98770   3.07735   3.19910
 Alpha virt. eigenvalues --    3.22683   3.39787   3.40749   3.43454   3.44845
 Alpha virt. eigenvalues --    3.47711   3.70959   4.24685   4.32067   4.39453
 Alpha virt. eigenvalues --    4.55348   4.64987
          Condensed to atoms (all electrons):
              1          2          3          4          5          6
     1  C    6.804617   0.047947  -0.006417  -0.066865   0.384725  -0.008031
     2  O    0.047947   8.383020  -0.011653   0.025867  -0.062489  -0.001533
     3  H   -0.006417  -0.011653   0.634463  -0.129749   0.044044   0.008203
     4  H   -0.066865   0.025867  -0.129749   0.939401  -0.114977  -0.026805
     5  H    0.384725  -0.062489   0.044044  -0.114977   0.670125   0.015646
     6  H   -0.008031  -0.001533   0.008203  -0.026805   0.015646   0.554438
     7  H   -0.080582  -0.008751   0.016394  -0.010828   0.010286  -0.020127
     8  H   -0.066219   0.196455  -0.013347   0.021518  -0.013118  -0.004114
     9  H   -0.109365   0.021647  -0.016149   0.027960  -0.038151  -0.046653
    10  H   -0.010160   0.247433  -0.002583   0.002194  -0.003483  -0.000525
    11  C   -0.139999   0.010725   0.375607   0.202373  -0.009518  -0.002290
    12  C   -0.852822  -0.046165  -0.053033   0.121470  -0.115522   0.362978
    13  O   -0.246642  -0.090546  -0.033020  -0.068291   0.006236  -0.000176
              7          8          9         10         11         12
     1  C   -0.080582  -0.066219  -0.109365  -0.010160  -0.139999  -0.852822
     2  O   -0.008751   0.196455   0.021647   0.247433   0.010725  -0.046165
     3  H    0.016394  -0.013347  -0.016149  -0.002583   0.375607  -0.053033
     4  H   -0.010828   0.021518   0.027960   0.002194   0.202373   0.121470
     5  H    0.010286  -0.013118  -0.038151  -0.003483  -0.009518  -0.115522
     6  H   -0.020127  -0.004114  -0.046653  -0.000525  -0.002290   0.362978
     7  H    0.459014   0.001655  -0.014321   0.000735   0.008150   0.429524
     8  H    0.001655   0.361531   0.003400  -0.024969  -0.091719   0.060610
     9  H   -0.014321   0.003400   0.512093   0.000391   0.023255   0.443838
    10  H    0.000735  -0.024969   0.000391   0.433674  -0.008807   0.016727
    11  C    0.008150  -0.091719   0.023255  -0.008807   5.427966   0.060966
    12  C    0.429524   0.060610   0.443838   0.016727   0.060966   6.191558
    13  O   -0.000312   0.129168   0.001216   0.001310   0.364362   0.048007
             13
     1  C   -0.246642
     2  O   -0.090546
     3  H   -0.033020
     4  H   -0.068291
     5  H    0.006236
     6  H   -0.000176
     7  H   -0.000312
     8  H    0.129168
     9  H    0.001216
    10  H    0.001310
    11  C    0.364362
    12  C    0.048007
    13  O    8.483708
 Mulliken atomic charges:
              1
     1  C    0.349815
     2  O   -0.711958
     3  H    0.187240
     4  H    0.076734
     5  H    0.226196
     6  H    0.168990
     7  H    0.209163
     8  H    0.439149
     9  H    0.190838
    10  H    0.348064
    11  C   -0.221072
    12  C   -0.668138
    13  O   -0.595020
 Sum of Mulliken atomic charges =   0.00000
 Mulliken charges with hydrogens summed into heavy atoms:
              1
     1  C    0.576011
     2  O    0.075255
    11  C    0.042901
    12  C   -0.099147
    13  O   -0.595020
 Sum of Mulliken charges with hydrogens summed into heavy atoms =   0.00000
 APT atomic charges:
              1
     1  C    0.239381
     2  O   -0.953716
     3  H    0.404366
     4  H    0.264464
     5  H    0.421833
     6  H    0.530578
     7  H    0.402380
     8  H    0.387444
     9  H    0.431102
    10  H    0.616316
    11  C   -0.646007
    12  C   -1.443594
    13  O   -0.654548
 Sum of APT charges=   0.00000
 APT Atomic charges with hydrogens summed into heavy atoms:
              1
     1  C    0.661214
     2  O    0.050044
     3  H    0.000000
     4  H    0.000000
     5  H    0.000000
     6  H    0.000000
     7  H    0.000000
     8  H    0.000000
     9  H    0.000000
    10  H    0.000000
    11  C    0.022824
    12  C   -0.079534
    13  O   -0.654548
 Sum of APT charges=   0.00000
 Electronic spatial extent (au):  <R**2>=            503.4953
 Charge=              0.0000 electrons
 Dipole moment (field-independent basis, Debye):
    X=             -5.1029    Y=              0.3045    Z=              1.0329  Tot=              5.2153
 Quadrupole moment (field-independent basis, Debye-Ang):
   XX=            -36.2536   YY=            -32.1363   ZZ=            -31.0469
   XY=              3.7553   XZ=              0.2765   YZ=              4.3458
 Traceless Quadrupole moment (field-independent basis, Debye-Ang):
   XX=             -3.1080   YY=              1.0093   ZZ=              2.0987
   XY=              3.7553   XZ=              0.2765   YZ=              4.3458
 Octapole moment (field-independent basis, Debye-Ang**2):
  XXX=            -15.3233  YYY=              8.8249  ZZZ=             -0.7057  XYY=             -0.0685
  XXY=             10.8406  XXZ=             -1.2444  XZZ=             -0.0245  YZZ=              1.2073
  YYZ=              6.6467  XYZ=              3.3101
 Hexadecapole moment (field-independent basis, Debye-Ang**3):
 XXXX=           -381.4928 YYYY=           -202.7603 ZZZZ=            -64.2623 XXXY=             17.9721
 XXXZ=             -0.5429 YYYX=              5.3751 YYYZ=             17.7299 ZZZX=              1.1694
 ZZZY=              5.6609 XXYY=           -100.0399 XXZZ=            -73.2338 YYZZ=            -46.0563
 XXYZ=              2.6319 YYXZ=              5.0605 ZZXY=              2.1644
 N-N= 1.885257148126D+02 E-N=-1.006907032110D+03  KE= 2.670071731318D+02
  Exact polarizability:   0.000   0.000   0.000   0.000   0.000   0.000
 Approx polarizability:  96.935  -0.815  95.052  -6.259   0.112  62.618
 PrsmSu:  requested number of processors reduced to:  10 ShMem   1 Linda.
 PrsmSu:  requested number of processors reduced to:  10 ShMem   1 Linda.
 Calling FoFJK, ICntrl=    100147 FMM=F ISym2X=0 I1Cent= 0 IOpClX= 0 NMat=1 NMatS=1 NMatT=0.
 CoulSu:  requested number of processors reduced to:  10 ShMem   1 Linda.
 CalDSu:  requested number of processors reduced to:  23 ShMem   1 Linda.
 ***** Axes restored to original set *****
 -------------------------------------------------------------------
 Center     Atomic                   Forces (Hartrees/Bohr)
 Number     Number              X              Y              Z
 -------------------------------------------------------------------
      1        6           0.003412254    0.009957920    0.000025894
      2        8          -0.003508579   -0.001816470   -0.002305659
      3        1          -0.000006430   -0.001618738    0.000538305
      4        1           0.001772745    0.001541508    0.000883086
      5        1           0.000606046   -0.000995254    0.000198841
      6        1          -0.001465233   -0.000172430   -0.000705960
      7        1          -0.000222000   -0.000341432    0.000029439
      8        1          -0.004182911    0.002822341    0.006799636
      9        1           0.000016481    0.000081095    0.001272118
     10        1           0.000965086   -0.000195121    0.002775585
     11        6          -0.004344576   -0.007536727   -0.004287485
     12        6           0.001381481   -0.000886813   -0.001476125
     13        8           0.005575636   -0.000839878   -0.003747674
 -------------------------------------------------------------------
 Cartesian Forces:  Max     0.009957920 RMS     0.003088216
 -----------------------------------------------------------------------------------------------
                       Internal Coordinate Forces (Hartree/Bohr or radian)
  Cent   Atom   N1       Length/X         N2         Alpha/Y        N3         Beta/Z          J
 -----------------------------------------------------------------------------------------------
      1  C 
      2  O        1   0.007270(     1)
      3  H        1   0.000003(     2)      2  -0.002191(    13)
      4  H        1  -0.000318(     3)      2  -0.002774(    14)      3  -0.006116(    24)     0
      5  H        1   0.000112(     4)      2  -0.000397(    15)      3   0.007426(    25)     0
      6  H        1   0.000806(     5)      2   0.000858(    16)      5  -0.004169(    26)     0
      7  H        1  -0.000395(     6)      2   0.000275(    17)      5  -0.000309(    27)     0
      8  H        2  -0.006376(     7)      1   0.010500(    18)      5  -0.003741(    28)     0
      9  H        1   0.000192(     8)      2  -0.005002(    19)      8   0.000188(    29)     0
     10  H        2   0.000122(     9)      1   0.005279(    20)      5  -0.010544(    30)     0
     11  C        1   0.004103(    10)      2   0.031563(    21)     10   0.011464(    31)     0
     12  C        1  -0.000506(    11)     11  -0.004046(    22)      2  -0.000630(    32)     0
     13  O       11  -0.001593(    12)      1   0.015609(    23)     12   0.004331(    33)     0
 -----------------------------------------------------------------------------------------------
 Internal  Forces:  Max     0.031562805 RMS     0.007652981

 GradGradGradGradGradGradGradGradGradGradGradGradGradGradGradGradGradGrad
 Berny optimization.
 Search for a saddle point.
 Step number   1 out of a maximum of  100
 All quantities printed in internal units (Hartrees-Bohrs-Radians)
 Swaping is turned off.
 Second derivative matrix not updated -- analytic derivatives used.
 ITU=  0
     Eigenvalues ---   -0.09696  -0.00426   0.01161   0.01777   0.01950
     Eigenvalues ---    0.02551   0.03935   0.05340   0.06542   0.06823
     Eigenvalues ---    0.07037   0.09291   0.09603   0.10356   0.17738
     Eigenvalues ---    0.18152   0.25939   0.34278   0.35938   0.37624
     Eigenvalues ---    0.44301   0.48415   0.50511   0.53816   0.69624
     Eigenvalues ---    0.95665   1.30750   1.75139   2.21649   3.44202
     Eigenvalues ---    4.17420   7.17992  19.28372
 Eigenvectors required to have negative eigenvalues:
                          B3        B1        B7        A2        A11
   1                    0.62639  -0.50605   0.34503  -0.23073  -0.21088
                          B12       D10       A3        A9        D9
   1                    0.18290  -0.18279   0.11743   0.11115   0.09307
 RFO step:  Lambda0=4.507761050D-04 Lambda=-7.61898096D-03.
 Linear search not attempted -- option 19 set.
 Maximum step size (   0.300) exceeded in Quadratic search.
    -- Step size scaled by   0.369
 Variable       Old X    -DE/DX   Delta X   Delta X   Delta X     New X
                                 (Linear)    (Quad)   (Total)
    B1        4.26184   0.00727   0.00000  -0.02189  -0.02189   4.23995
    B2        4.07037   0.00000   0.00000  -0.01223  -0.01223   4.05814
    B3        3.22770  -0.00032   0.00000   0.06855   0.06855   3.29625
    B4        2.05394   0.00011   0.00000   0.00051   0.00051   2.05445
    B5        4.06553   0.00081   0.00000   0.01616   0.01616   4.08169
    B6        4.06362  -0.00039   0.00000  -0.00637  -0.00637   4.05725
    B7        1.99776  -0.00638   0.00000  -0.01249  -0.01249   1.98527
    B8        3.97186   0.00019   0.00000  -0.03589  -0.03589   3.93597
    B9        1.82434   0.00012   0.00000   0.00029   0.00029   1.82463
   B10        2.73007   0.00410   0.00000   0.00806   0.00806   2.73813
   B11        2.81087  -0.00051   0.00000  -0.00820  -0.00820   2.80267
   B12        2.48342  -0.00159   0.00000   0.00356   0.00356   2.48699
    A1        1.55343  -0.00219   0.00000  -0.00785  -0.00785   1.54558
    A2        2.19564  -0.00277   0.00000  -0.00898  -0.00898   2.18665
    A3        1.52061  -0.00040   0.00000  -0.00133  -0.00133   1.51929
    A4        2.32535   0.00086   0.00000  -0.09764  -0.09764   2.22771
    A5        1.81398   0.00027   0.00000   0.12808   0.12808   1.94207
    A6        1.29367   0.01050   0.00000   0.02171   0.02171   1.31539
    A7        1.47268  -0.00500   0.00000  -0.09943  -0.09943   1.37324
    A8        1.90260   0.00528   0.00000   0.05754   0.05754   1.96014
    A9        1.46735   0.03156   0.00000   0.00941   0.00941   1.47677
   A10        2.17108  -0.00405   0.00000  -0.00337  -0.00337   2.16771
   A11        2.03237   0.01561   0.00000   0.00344   0.00344   2.03581
    D1        0.75071  -0.00612   0.00000  -0.01870  -0.01870   0.73201
    D2        2.50651   0.00743   0.00000   0.00264   0.00264   2.50914
    D3        1.78395  -0.00417   0.00000  -0.15278  -0.15278   1.63117
    D4        2.58893  -0.00031   0.00000   0.04414   0.04414   2.63307
    D5        1.53776  -0.00374   0.00000  -0.00611  -0.00611   1.53165
    D6       -2.95176   0.00019   0.00000   0.13082   0.13082  -2.82094
    D7       -0.26173  -0.01054   0.00000   0.00251   0.00251  -0.25922
    D8       -2.28835   0.01146   0.00000   0.01017   0.01017  -2.27818
    D9        1.90453  -0.00063   0.00000   0.00355   0.00355   1.90809
   D10        2.74042   0.00433   0.00000   0.00080   0.00080   2.74122
         Item               Value     Threshold  Converged?
 Maximum Force            0.031563     0.000015     NO 
 RMS     Force            0.007653     0.000010     NO 
 Maximum Displacement     0.152777     0.000060     NO 
 RMS     Displacement     0.052223     0.000040     NO 
 Predicted change in Energy=-2.208365D-03
 GradGradGradGradGradGradGradGradGradGradGradGradGradGradGradGradGradGrad

 ---------------------------------------------------------------------------------------------------
                            Z-MATRIX (ANGSTROMS AND DEGREES)
   CD    Cent   Atom    N1       Length/X        N2       Alpha/Y        N3        Beta/Z          J
 ---------------------------------------------------------------------------------------------------
      1      1  C 
      2      2  O        1   2.243684(     1)
      3      3  H        1   2.147474(     2)      2   88.555(    13)
      4      4  H        1   1.744301(     3)      2  125.286(    14)      3   41.941(    24)      0
      5      5  H        1   1.087169(     4)      2   87.049(    15)      3  143.763(    25)      0
      6      6  H        1   2.159935(     5)      2  127.638(    16)      5   93.459(    26)      0
      7      7  H        1   2.147004(     6)      2  111.272(    17)      5  150.864(    27)      0
      8      8  H        2   1.050560(     7)      1   75.366(    18)      5   87.757(    28)      0
      9      9  H        1   2.082825(     8)      2   78.681(    19)      8 -161.628(    29)      0
     10     10  H        2   0.965553(     9)      1  112.308(    20)      5  -14.852(    30)      0
     11     11  C        1   1.448956(    10)      2   84.613(    21)     10 -130.530(    31)      0
     12     12  C        1   1.483110(    11)     11  124.201(    22)      2  109.325(    32)      0
     13     13  O       11   1.316057(    12)      1  116.643(    23)     12  157.060(    33)      0
 ---------------------------------------------------------------------------------------------------
                         Z-Matrix orientation:                         
 ---------------------------------------------------------------------
 Center     Atomic      Atomic             Coordinates (Angstroms)
 Number     Number       Type             X           Y           Z
 ---------------------------------------------------------------------
      1          6           0        0.000000    0.000000    0.000000
      2          8           0        0.000000    0.000000    2.243684
      3          1           0        2.146791    0.000000    0.054149
      4          1           0        1.059091   -0.951647   -1.007612
      5          1           0       -0.875728   -0.641798    0.055976
      6          1           0       -0.925981    1.438077   -1.319020
      7          1           0        0.833720    1.818736   -0.778932
      8          1           0        0.568317   -0.842762    1.978268
      9          1           0       -0.549965    1.966872    0.408794
     10          1           0       -0.831793   -0.325713    2.610187
     11          6           0        1.272687   -0.679141    0.136042
     12          6           0       -0.153657    1.394017   -0.482412
     13          8           0        1.315688   -1.688801    0.979099
 ---------------------------------------------------------------------
                    Distance matrix (angstroms):
                    1          2          3          4          5
     1  C    0.000000
     2  O    2.243684   0.000000
     3  H    2.147474   3.066394   0.000000
     4  H    1.744301   3.549399   1.793338   0.000000
     5  H    1.087169   2.442308   3.089907   2.229518   0.000000
     6  H    2.159935   3.952008   3.659998   3.122221   2.493797
     7  H    2.147004   3.624789   2.392902   2.788926   3.110227
     8  H    2.224135   1.050560   2.627558   3.027903   2.412645
     9  H    2.082825   2.745518   3.356613   3.621190   2.652501
    10  H    2.758812   0.965553   3.938449   4.129855   2.574069
    11  C    1.448956   2.554040   1.109953   1.194917   2.150231
    12  C    1.483110   3.065696   2.742853   2.692347   2.226160
    13  O    2.354086   2.486415   2.097215   2.134539   2.598206
                    6          7          8          9         10
     6  H    0.000000
     7  H    1.879666   0.000000
     8  H    4.278698   3.841375   0.000000
     9  H    1.845631   1.829541   3.407029   0.000000
    10  H    4.307958   4.342663   1.620792   3.190847   0.000000
    11  C    3.381414   2.696157   1.979067   3.224568   3.267283
    12  C    1.139447   1.114999   3.402847   1.131136   3.602986
    13  O    4.481495   3.952946   1.507543   4.143652   3.021611
                   11         12         13
    11  C    0.000000
    12  C    2.591318   0.000000
    13  O    1.316057   3.714668   0.000000
 Stoichiometry    C3H8O2
 Framework group  C1[X(C3H8O2)]
 Deg. of freedom    33
 Full point group                 C1      NOp   1
 Largest Abelian subgroup         C1      NOp   1
 Largest concise Abelian subgroup C1      NOp   1
                         Standard orientation:                         
 ---------------------------------------------------------------------
 Center     Atomic      Atomic             Coordinates (Angstroms)
 Number     Number       Type             X           Y           Z
 ---------------------------------------------------------------------
      1          6           0       -0.617571   -0.195078    0.422526
      2          8           0        0.626195    1.566854   -0.196153
      3          1           0        0.170959   -1.273198   -1.258998
      4          1           0       -0.084795   -1.856015    0.417598
      5          1           0       -0.412316    0.092351    1.450724
      6          1           0       -2.759621   -0.268753    0.689945
      7          1           0       -2.125337   -0.636480   -1.040836
      8          1           0        1.314944    0.781190   -0.086458
      9          1           0       -2.067452    1.067835   -0.378131
     10          1           0        0.780918    2.180430    0.533146
     11          6           0        0.419295   -0.978698   -0.218039
     12          6           0       -1.989772   -0.029605   -0.115337
     13          8           0        1.662679   -0.675239    0.088418
 ---------------------------------------------------------------------
 Rotational constants (GHZ):      6.3117495      3.7998576      2.6024967
 Standard basis: 6-31++G(d,p) (6D, 7F)
 The following finite field(s) will be applied:
 An electric field of              0.0000  0.0000  0.0050
 There are   143 symmetry adapted basis functions of A   symmetry.
 Integral buffers will be    131072 words long.
 Raffenetti 2 integral format.
 Two-electron integral symmetry is turned on.
   143 basis functions,   224 primitive gaussians,   143 cartesian basis functions
    21 alpha electrons       21 beta electrons
       nuclear repulsion energy       188.1746150510 Hartrees.
 NAtoms=   13 NActive=   13 NUniq=   13 SFac= 1.00D+00 NAtFMM=   50 NAOKFM=F Big=F
 One-electron integrals computed using PRISM.
 PrsmSu:  requested number of processors reduced to:  10 ShMem   1 Linda.
 NBasis=   143 RedAO= T  NBF=   143
 NBsUse=   143 1.00D-06 NBFU=   143
 The nuclear repulsion energy is now       188.1746150510 hartrees.
 Initial guess read from the read-write file.
 B after Tr=     0.000000    0.000000    0.000000
         Rot=    1.000000    0.000000    0.000000    0.000000 Ang=   0.00 deg.
 Initial guess orbital symmetries:
       Occupied  (A) (A) (A) (A) (A) (A) (A) (A) (A) (A) (A) (A)
                 (A) (A) (A) (A) (A) (A) (A) (A) (A)
       Virtual   (A) (A) (A) (A) (A) (A) (A) (A) (A) (A) (A) (A)
                 (A) (A) (A) (A) (A) (A) (A) (A) (A) (A) (A) (A)
                 (A) (A) (A) (A) (A) (A) (A) (A) (A) (A) (A) (A)
                 (A) (A) (A) (A) (A) (A) (A) (A) (A) (A) (A) (A)
                 (A) (A) (A) (A) (A) (A) (A) (A) (A) (A) (A) (A)
                 (A) (A) (A) (A) (A) (A) (A) (A) (A) (A) (A) (A)
                 (A) (A) (A) (A) (A) (A) (A) (A) (A) (A) (A) (A)
                 (A) (A) (A) (A) (A) (A) (A) (A) (A) (A) (A) (A)
                 (A) (A) (A) (A) (A) (A) (A) (A) (A) (A) (A) (A)
                 (A) (A) (A) (A) (A) (A) (A) (A) (A) (A) (A) (A)
                 (A) (A)
 Harris functional with IExCor=  402 diagonalized for initial guess.
 ExpMin= 3.60D-02 ExpMax= 5.48D+03 ExpMxC= 8.25D+02 IAcc=3 IRadAn=         0 AccDes= 0.00D+00
 HarFok:  IExCor=  402 AccDes= 0.00D+00 IRadAn=         0 IDoV= 1
 ScaDFX=  1.000000  1.000000  1.000000  1.000000
 FoFCou: FMM=F IPFlag=           0 FMFlag=      100000 FMFlg1=           0
         NFxFlg=           0 DoJE=T BraDBF=F KetDBF=T FulRan=T
         Omega=  0.000000  0.000000  1.000000  0.000000  0.000000 ICntrl=     500 IOpCl=  0
         NMat0=    1 NMatS0=    1 NMatT0=    0 NMatD0=    1 NMtDS0=    0 NMtDT0=    0
         I1Cent=           4 NGrid=           0.
 Petite list used in FoFCou.
 Requested convergence on RMS density matrix=1.00D-08 within 128 cycles.
 Requested convergence on MAX density matrix=1.00D-06.
 Requested convergence on             energy=1.00D-06.
 No special actions if energy rises.
 SCF Done:  E(RB3LYP) =  -269.492417981     A.U. after   13 cycles
             Convg  =    0.5984D-08             -V/T =  2.0098
 PrsmSu:  requested number of processors reduced to:  10 ShMem   1 Linda.
 PrsmSu:  requested number of processors reduced to:  23 ShMem   1 Linda.
 Calling FoFJK, ICntrl=      2127 FMM=F ISym2X=0 I1Cent= 0 IOpClX= 0 NMat=1 NMatS=1 NMatT=0.
 CoulSu:  requested number of processors reduced to:  16 ShMem   1 Linda.
 ***** Axes restored to original set *****
 -------------------------------------------------------------------
 Center     Atomic                   Forces (Hartrees/Bohr)
 Number     Number              X              Y              Z
 -------------------------------------------------------------------
      1        6           0.003341265    0.006618725    0.000773311
      2        8          -0.003263170   -0.001995321   -0.001568278
      3        1          -0.000131444   -0.001877723    0.000379101
      4        1           0.001509671    0.000368995    0.000385249
      5        1           0.000257691   -0.000361217    0.000443195
      6        1           0.018419891    0.004398481    0.018239466
      7        1          -0.014499803   -0.002108773    0.002106272
      8        1          -0.002046314    0.002161782    0.004336460
      9        1           0.007078374   -0.006694802   -0.016934427
     10        1           0.000762158   -0.000019639    0.002013693
     11        6          -0.002709523   -0.004843679   -0.003372153
     12        6          -0.012284443    0.004888610   -0.004619365
     13        8           0.003565648   -0.000535438   -0.002182525
 -------------------------------------------------------------------
 Cartesian Forces:  Max     0.018419891 RMS     0.006523784
 -----------------------------------------------------------------------------------------------
                       Internal Coordinate Forces (Hartree/Bohr or radian)
  Cent   Atom   N1       Length/X         N2         Alpha/Y        N3         Beta/Z          J
 -----------------------------------------------------------------------------------------------
      1  C 
      2  O        1   0.004782(     1)
      3  H        1  -0.000122(     2)      2  -0.001551(    13)
      4  H        1   0.000493(     3)      2  -0.002705(    14)      3  -0.003453(    24)     0
      5  H        1   0.000028(     4)      2  -0.000909(    15)      3   0.004257(    25)     0
      6  H        1  -0.016107(     5)      2  -0.043315(    16)      5   0.057754(    26)     0
      7  H        1  -0.008181(     6)      2   0.003752(    17)      5  -0.046512(    27)     0
      8  H        2  -0.003937(     7)      1   0.006857(    18)      5  -0.020289(    28)     0
      9  H        1  -0.011515(     8)      2   0.058904(    19)      8   0.019351(    29)     0
     10  H        2   0.000114(     9)      1   0.003886(    20)      5   0.026363(    30)     0
     11  C        1   0.002752(    10)      2   0.028584(    21)     10  -0.025863(    31)     0
     12  C        1   0.007370(    11)     11   0.031760(    22)      2   0.006193(    32)     0
     13  O       11  -0.000871(    12)      1   0.009929(    23)     12   0.002296(    33)     0
 -----------------------------------------------------------------------------------------------
 Internal  Forces:  Max     0.058903739 RMS     0.021769959

 GradGradGradGradGradGradGradGradGradGradGradGradGradGradGradGradGradGrad
 Berny optimization.
 Search for a saddle point.
 Step number   2 out of a maximum of  100
 All quantities printed in internal units (Hartrees-Bohrs-Radians)
 Swaping is turned off.
 Update second derivatives using D2CorN and points    1    2
 ITU=  0  0
     Eigenvalues ---   -0.09812   0.00980   0.01746   0.01909   0.02441
     Eigenvalues ---    0.03933   0.05274   0.06217   0.06795   0.07024
     Eigenvalues ---    0.08800   0.09537   0.09999   0.12128   0.17787
     Eigenvalues ---    0.18151   0.26011   0.34291   0.35947   0.37676
     Eigenvalues ---    0.44302   0.48422   0.50515   0.53818   0.69632
     Eigenvalues ---    0.95662   1.30895   1.75216   2.21735   3.44961
     Eigenvalues ---    4.17477   7.17987  19.28439
 Eigenvectors required to have negative eigenvalues:
                          B3        B1        B7        A2        A11
   1                    0.63207  -0.50541   0.34098  -0.23137  -0.20903
                          D10       B12       A3        A9        D9
   1                   -0.18283   0.18227   0.11560   0.11124   0.09322
 RFO step:  Lambda0=7.303644030D-08 Lambda=-1.45458358D-02.
 Linear search not attempted -- option 19 set.
 Maximum step size (   0.300) exceeded in Quadratic search.
    -- Step size scaled by   0.749
 Variable       Old X    -DE/DX   Delta X   Delta X   Delta X     New X
                                 (Linear)    (Quad)   (Total)
    B1        4.23995   0.00478   0.00000   0.01313   0.01313   4.25308
    B2        4.05814  -0.00012   0.00000  -0.01976  -0.01976   4.03838
    B3        3.29625   0.00049   0.00000   0.05406   0.05406   3.35032
    B4        2.05445   0.00003   0.00000   0.00038   0.00038   2.05483
    B5        4.08169  -0.01611   0.00000  -0.01757  -0.01757   4.06412
    B6        4.05725  -0.00818   0.00000  -0.01339  -0.01339   4.04385
    B7        1.98527  -0.00394   0.00000  -0.06536  -0.06536   1.91991
    B8        3.93597  -0.01151   0.00000  -0.00756  -0.00756   3.92841
    B9        1.82463   0.00011   0.00000  -0.00121  -0.00121   1.82342
   B10        2.73813   0.00275   0.00000   0.01233   0.01233   2.75046
   B11        2.80267   0.00737   0.00000  -0.00823  -0.00823   2.79444
   B12        2.48699  -0.00087   0.00000  -0.00954  -0.00954   2.47745
    A1        1.54558  -0.00155   0.00000  -0.00016  -0.00016   1.54542
    A2        2.18665  -0.00271   0.00000   0.00451   0.00451   2.19116
    A3        1.51929  -0.00091   0.00000  -0.00398  -0.00398   1.51531
    A4        2.22771  -0.04332   0.00000   0.05228   0.05228   2.27999
    A5        1.94207   0.00375   0.00000  -0.09716  -0.09716   1.84490
    A6        1.31539   0.00686   0.00000   0.04486   0.04486   1.36024
    A7        1.37324   0.05890   0.00000   0.06488   0.06488   1.43813
    A8        1.96014   0.00389   0.00000   0.14581   0.14581   2.10595
    A9        1.47677   0.02858   0.00000   0.00915   0.00915   1.48592
   A10        2.16771   0.03176   0.00000  -0.00547  -0.00547   2.16224
   A11        2.03581   0.00993   0.00000   0.03153   0.03153   2.06734
    D1        0.73201  -0.00345   0.00000  -0.01214  -0.01214   0.71988
    D2        2.50914   0.00426   0.00000   0.02967   0.02967   2.53882
    D3        1.63117   0.05775   0.00000   0.11920   0.11920   1.75038
    D4        2.63307  -0.04651   0.00000  -0.04594  -0.04594   2.58713
    D5        1.53165  -0.02029   0.00000   0.08357   0.08357   1.61522
    D6       -2.82094   0.01935   0.00000  -0.01914  -0.01914  -2.84008
    D7       -0.25922   0.02636   0.00000   0.09766   0.09766  -0.16156
    D8       -2.27818  -0.02586   0.00000   0.07949   0.07949  -2.19869
    D9        1.90809   0.00619   0.00000  -0.00367  -0.00367   1.90441
   D10        2.74122   0.00230   0.00000   0.00398   0.00398   2.74520
         Item               Value     Threshold  Converged?
 Maximum Force            0.058904     0.000015     NO 
 RMS     Force            0.021770     0.000010     NO 
 Maximum Displacement     0.145813     0.000060     NO 
 RMS     Displacement     0.052223     0.000040     NO 
 Predicted change in Energy=-7.470104D-03
 GradGradGradGradGradGradGradGradGradGradGradGradGradGradGradGradGradGrad

 ---------------------------------------------------------------------------------------------------
                            Z-MATRIX (ANGSTROMS AND DEGREES)
   CD    Cent   Atom    N1       Length/X        N2       Alpha/Y        N3        Beta/Z          J
 ---------------------------------------------------------------------------------------------------
      1      1  C 
      2      2  O        1   2.250632(     1)
      3      3  H        1   2.137019(     2)      2   88.546(    13)
      4      4  H        1   1.772911(     3)      2  125.544(    14)      3   41.246(    24)      0
      5      5  H        1   1.087369(     4)      2   86.821(    15)      3  145.463(    25)      0
      6      6  H        1   2.150640(     5)      2  130.634(    16)      5  100.289(    26)      0
      7      7  H        1   2.139916(     6)      2  105.705(    17)      5  148.232(    27)      0
      8      8  H        2   1.015973(     7)      1   77.936(    18)      5   92.545(    28)      0
      9      9  H        1   2.078827(     8)      2   82.399(    19)      8 -162.725(    29)      0
     10     10  H        2   0.964914(     9)      1  120.662(    20)      5   -9.257(    30)      0
     11     11  C        1   1.455481(    10)      2   85.137(    21)     10 -125.975(    31)      0
     12     12  C        1   1.478752(    11)     11  123.887(    22)      2  109.115(    32)      0
     13     13  O       11   1.311011(    12)      1  118.450(    23)     12  157.289(    33)      0
 ---------------------------------------------------------------------------------------------------
                         Z-Matrix orientation:                         
 ---------------------------------------------------------------------
 Center     Atomic      Atomic             Coordinates (Angstroms)
 Number     Number       Type             X           Y           Z
 ---------------------------------------------------------------------
      1          6           0        0.000000    0.000000    0.000000
      2          8           0        0.000000    0.000000    2.250632
      3          1           0        2.136331    0.000000    0.054224
      4          1           0        1.084637   -0.951066   -1.030655
      5          1           0       -0.894358   -0.615515    0.060303
      6          1           0       -0.670267    1.488115   -1.400538
      7          1           0        0.827863    1.886360   -0.579249
      8          1           0        0.599057   -0.792619    2.038291
      9          1           0       -0.698207    1.938661    0.274989
     10          1           0       -0.750523   -0.354444    2.742712
     11          6           0        1.271528   -0.697437    0.123388
     12          6           0       -0.132608    1.395643   -0.470430
     13          8           0        1.346930   -1.718471    0.942262
 ---------------------------------------------------------------------
                    Distance matrix (angstroms):
                    1          2          3          4          5
     1  C    0.000000
     2  O    2.250632   0.000000
     3  H    2.137019   3.064004   0.000000
     4  H    1.772911   3.584384   1.785371   0.000000
     5  H    1.087369   2.444643   3.092567   2.284558   0.000000
     6  H    2.150640   3.999348   3.493968   3.027558   2.570901
     7  H    2.139916   3.500277   2.381540   2.884560   3.103941
     8  H    2.267541   1.015973   2.632105   3.111161   2.484771
     9  H    2.078827   2.854657   3.441185   3.637824   2.570678
    10  H    2.865552   0.964914   3.960749   4.238168   2.698920
    11  C    1.455481   2.574562   1.113143   1.196273   2.168352
    12  C    1.478752   3.060978   2.714989   2.702329   2.215107
    13  O    2.378071   2.545426   2.089236   2.133098   2.649101
                    6          7          8          9         10
     6  H    0.000000
     7  H    1.754282   0.000000
     8  H    4.317229   3.752438   0.000000
     9  H    1.735270   1.749671   3.500288   0.000000
    10  H    4.535194   4.306731   1.584163   3.369084   0.000000
    11  C    3.296901   2.714138   2.031780   3.294215   3.326739
    12  C    1.078299   1.084043   3.408446   1.081860   3.710648
    13  O    4.454210   3.947053   1.617960   4.242930   3.082450
                   11         12         13
    11  C    0.000000
    12  C    2.589440   0.000000
    13  O    1.311011   3.725914   0.000000
 Stoichiometry    C3H8O2
 Framework group  C1[X(C3H8O2)]
 Deg. of freedom    33
 Full point group                 C1      NOp   1
 Largest Abelian subgroup         C1      NOp   1
 Largest concise Abelian subgroup C1      NOp   1
                         Standard orientation:                         
 ---------------------------------------------------------------------
 Center     Atomic      Atomic             Coordinates (Angstroms)
 Number     Number       Type             X           Y           Z
 ---------------------------------------------------------------------
      1          6           0       -0.618981   -0.196510    0.433308
      2          8           0        0.601615    1.592002   -0.180462
      3          1           0        0.165016   -1.243318   -1.256779
      4          1           0       -0.069825   -1.881767    0.393912
      5          1           0       -0.432968    0.105201    1.461287
      6          1           0       -2.749690   -0.477980    0.511429
      7          1           0       -2.078696   -0.458620   -1.109342
      8          1           0        1.302270    0.856890   -0.150544
      9          1           0       -2.194317    1.015984   -0.174717
     10          1           0        0.873585    2.249339    0.471458
     11          6           0        0.428723   -0.976592   -0.208732
     12          6           0       -1.984858   -0.043570   -0.112308
     13          8           0        1.677800   -0.700214    0.077923
 ---------------------------------------------------------------------
 Rotational constants (GHZ):      6.1763402      3.7881962      2.5665242
 Standard basis: 6-31++G(d,p) (6D, 7F)
 The following finite field(s) will be applied:
 An electric field of              0.0000  0.0000  0.0050
 There are   143 symmetry adapted basis functions of A   symmetry.
 Integral buffers will be    131072 words long.
 Raffenetti 2 integral format.
 Two-electron integral symmetry is turned on.
   143 basis functions,   224 primitive gaussians,   143 cartesian basis functions
    21 alpha electrons       21 beta electrons
       nuclear repulsion energy       187.7315661255 Hartrees.
 NAtoms=   13 NActive=   13 NUniq=   13 SFac= 1.00D+00 NAtFMM=   50 NAOKFM=F Big=F
 One-electron integrals computed using PRISM.
 PrsmSu:  requested number of processors reduced to:  10 ShMem   1 Linda.
 NBasis=   143 RedAO= T  NBF=   143
 NBsUse=   143 1.00D-06 NBFU=   143
 The nuclear repulsion energy is now       187.7315661255 hartrees.
 Initial guess read from the read-write file.
 B after Tr=     0.000000    0.000000    0.000000
         Rot=    1.000000    0.000000    0.000000    0.000000 Ang=   0.00 deg.
 Initial guess orbital symmetries:
       Occupied  (A) (A) (A) (A) (A) (A) (A) (A) (A) (A) (A) (A)
                 (A) (A) (A) (A) (A) (A) (A) (A) (A)
       Virtual   (A) (A) (A) (A) (A) (A) (A) (A) (A) (A) (A) (A)
                 (A) (A) (A) (A) (A) (A) (A) (A) (A) (A) (A) (A)
                 (A) (A) (A) (A) (A) (A) (A) (A) (A) (A) (A) (A)
                 (A) (A) (A) (A) (A) (A) (A) (A) (A) (A) (A) (A)
                 (A) (A) (A) (A) (A) (A) (A) (A) (A) (A) (A) (A)
                 (A) (A) (A) (A) (A) (A) (A) (A) (A) (A) (A) (A)
                 (A) (A) (A) (A) (A) (A) (A) (A) (A) (A) (A) (A)
                 (A) (A) (A) (A) (A) (A) (A) (A) (A) (A) (A) (A)
                 (A) (A) (A) (A) (A) (A) (A) (A) (A) (A) (A) (A)
                 (A) (A) (A) (A) (A) (A) (A) (A) (A) (A) (A) (A)
                 (A) (A)
 Harris functional with IExCor=  402 diagonalized for initial guess.
 ExpMin= 3.60D-02 ExpMax= 5.48D+03 ExpMxC= 8.25D+02 IAcc=3 IRadAn=         0 AccDes= 0.00D+00
 HarFok:  IExCor=  402 AccDes= 0.00D+00 IRadAn=         0 IDoV= 1
 ScaDFX=  1.000000  1.000000  1.000000  1.000000
 FoFCou: FMM=F IPFlag=           0 FMFlag=      100000 FMFlg1=           0
         NFxFlg=           0 DoJE=T BraDBF=F KetDBF=T FulRan=T
         Omega=  0.000000  0.000000  1.000000  0.000000  0.000000 ICntrl=     500 IOpCl=  0
         NMat0=    1 NMatS0=    1 NMatT0=    0 NMatD0=    1 NMtDS0=    0 NMtDT0=    0
         I1Cent=           4 NGrid=           0.
 Petite list used in FoFCou.
 Requested convergence on RMS density matrix=1.00D-08 within 128 cycles.
 Requested convergence on MAX density matrix=1.00D-06.
 Requested convergence on             energy=1.00D-06.
 No special actions if energy rises.
 SCF Done:  E(RB3LYP) =  -269.494601260     A.U. after   13 cycles
             Convg  =    0.4551D-08             -V/T =  2.0092
 PrsmSu:  requested number of processors reduced to:  10 ShMem   1 Linda.
 PrsmSu:  requested number of processors reduced to:  23 ShMem   1 Linda.
 Calling FoFJK, ICntrl=      2127 FMM=F ISym2X=0 I1Cent= 0 IOpClX= 0 NMat=1 NMatS=1 NMatT=0.
 CoulSu:  requested number of processors reduced to:  16 ShMem   1 Linda.
 ***** Axes restored to original set *****
 -------------------------------------------------------------------
 Center     Atomic                   Forces (Hartrees/Bohr)
 Number     Number              X              Y              Z
 -------------------------------------------------------------------
      1        6           0.003482604    0.000530537   -0.004640433
      2        8          -0.003338653    0.003939582    0.003287560
      3        1          -0.000149123   -0.002444880    0.000166403
      4        1          -0.001927112    0.002074948    0.001624236
      5        1           0.000915872   -0.001434337    0.000160575
      6        1          -0.008450076   -0.001586723   -0.009697103
      7        1           0.006256572    0.001777054    0.000602381
      8        1           0.000384052   -0.003588810    0.000767627
      9        1          -0.005105198    0.004965547    0.007923900
     10        1          -0.000250206    0.000219143    0.000530763
     11        6          -0.000369417   -0.001297757    0.000570748
     12        6           0.007067731   -0.002902334    0.001371689
     13        8           0.001482954   -0.000251969   -0.002668347
 -------------------------------------------------------------------
 Cartesian Forces:  Max     0.009697103 RMS     0.003583973
 -----------------------------------------------------------------------------------------------
                       Internal Coordinate Forces (Hartree/Bohr or radian)
  Cent   Atom   N1       Length/X         N2         Alpha/Y        N3         Beta/Z          J
 -----------------------------------------------------------------------------------------------
      1  C 
      2  O        1   0.004586(     1)
      3  H        1  -0.000145(     2)      2  -0.000687(    13)
      4  H        1  -0.003236(     3)      2   0.001059(    14)      3  -0.000789(    24)     0
      5  H        1   0.000068(     4)      2  -0.000323(    15)      3  -0.000581(    25)     0
      6  H        1   0.007851(     5)      2   0.024552(    16)      5  -0.025772(    26)     0
      7  H        1   0.003824(     6)      2  -0.006878(    17)      5   0.019523(    27)     0
      8  H        2   0.002866(     7)      1   0.002683(    18)      5   0.008664(    28)     0
      9  H        1   0.007394(     8)      2  -0.027528(    19)      8  -0.012151(    29)     0
     10  H        2   0.000385(     9)      1   0.000709(    20)      5  -0.017822(    30)     0
     11  C        1   0.001538(    10)      2   0.006450(    21)     10   0.017344(    31)     0
     12  C        1  -0.003809(    11)     11  -0.018708(    22)      2  -0.006030(    32)     0
     13  O       11  -0.001385(    12)      1   0.005213(    23)     12   0.003796(    33)     0
 -----------------------------------------------------------------------------------------------
 Internal  Forces:  Max     0.027528158 RMS     0.010959916

 GradGradGradGradGradGradGradGradGradGradGradGradGradGradGradGradGradGrad
 Berny optimization.
 Search for a saddle point.
 Step number   3 out of a maximum of  100
 All quantities printed in internal units (Hartrees-Bohrs-Radians)
 Swaping is turned off.
 Update second derivatives using D2CorN and points    1    2    3
 ITU=  0  0  0
     Eigenvalues ---   -0.09841   0.00778   0.01646   0.01855   0.02314
     Eigenvalues ---    0.03930   0.05202   0.06064   0.06821   0.07036
     Eigenvalues ---    0.08573   0.09596   0.10453   0.14102   0.17802
     Eigenvalues ---    0.18157   0.26207   0.34262   0.35936   0.37642
     Eigenvalues ---    0.44298   0.48431   0.50528   0.53819   0.69593
     Eigenvalues ---    0.95680   1.31142   1.75197   2.22447   3.46719
     Eigenvalues ---    4.17685   7.17976  19.28575
 Eigenvectors required to have negative eigenvalues:
                          B3        B1        B7        A2        A11
   1                    0.61566  -0.50631   0.35347  -0.22972  -0.21467
                          B12       D10       A8        A3        A9
   1                    0.18378  -0.18235  -0.12468   0.11510   0.11132
 RFO step:  Lambda0=3.278573262D-04 Lambda=-1.71610833D-03.
 Linear search not attempted -- option 19 set.
 Variable       Old X    -DE/DX   Delta X   Delta X   Delta X     New X
                                 (Linear)    (Quad)   (Total)
    B1        4.25308   0.00459   0.00000  -0.02906  -0.02906   4.22402
    B2        4.03838  -0.00014   0.00000  -0.00828  -0.00828   4.03010
    B3        3.35032  -0.00324   0.00000   0.05508   0.05508   3.40540
    B4        2.05483   0.00007   0.00000   0.00094   0.00094   2.05577
    B5        4.06412   0.00785   0.00000  -0.00503  -0.00503   4.05909
    B6        4.04385   0.00382   0.00000   0.00805   0.00805   4.05190
    B7        1.91991   0.00287   0.00000   0.03361   0.03361   1.95352
    B8        3.92841   0.00739   0.00000   0.02328   0.02328   3.95169
    B9        1.82342   0.00038   0.00000   0.00217   0.00217   1.82559
   B10        2.75046   0.00154   0.00000   0.00287   0.00287   2.75334
   B11        2.79444  -0.00381   0.00000   0.00277   0.00277   2.79720
   B12        2.47745  -0.00139   0.00000   0.01158   0.01158   2.48903
    A1        1.54542  -0.00069   0.00000  -0.01640  -0.01640   1.52902
    A2        2.19116   0.00106   0.00000  -0.00949  -0.00949   2.18168
    A3        1.51531  -0.00032   0.00000   0.01768   0.01768   1.53299
    A4        2.27999   0.02455   0.00000  -0.02046  -0.02046   2.25953
    A5        1.84490  -0.00688   0.00000   0.00578   0.00578   1.85068
    A6        1.36024   0.00268   0.00000   0.00547   0.00547   1.36571
    A7        1.43813  -0.02753   0.00000  -0.03022  -0.03022   1.40791
    A8        2.10595   0.00071   0.00000   0.08886   0.08886   2.19481
    A9        1.48592   0.00645   0.00000   0.00904   0.00904   1.49496
   A10        2.16224  -0.01871   0.00000   0.00460   0.00460   2.16684
   A11        2.06734   0.00521   0.00000  -0.01144  -0.01144   2.05589
    D1        0.71988  -0.00079   0.00000  -0.02412  -0.02412   0.69575
    D2        2.53882  -0.00058   0.00000  -0.00999  -0.00999   2.52883
    D3        1.75038  -0.02577   0.00000  -0.02787  -0.02787   1.72250
    D4        2.58713   0.01952   0.00000   0.01799   0.01799   2.60512
    D5        1.61522   0.00866   0.00000  -0.02443  -0.02443   1.59079
    D6       -2.84008  -0.01215   0.00000   0.00383   0.00383  -2.83625
    D7       -0.16156  -0.01782   0.00000   0.01289   0.01289  -0.14868
    D8       -2.19869   0.01734   0.00000   0.03055   0.03055  -2.16813
    D9        1.90441  -0.00603   0.00000  -0.01062  -0.01062   1.89379
   D10        2.74520   0.00380   0.00000  -0.00423  -0.00423   2.74097
         Item               Value     Threshold  Converged?
 Maximum Force            0.027528     0.000015     NO 
 RMS     Force            0.010960     0.000010     NO 
 Maximum Displacement     0.088859     0.000060     NO 
 RMS     Displacement     0.024423     0.000040     NO 
 Predicted change in Energy=-7.076182D-04
 GradGradGradGradGradGradGradGradGradGradGradGradGradGradGradGradGradGrad

 ---------------------------------------------------------------------------------------------------
                            Z-MATRIX (ANGSTROMS AND DEGREES)
   CD    Cent   Atom    N1       Length/X        N2       Alpha/Y        N3        Beta/Z          J
 ---------------------------------------------------------------------------------------------------
      1      1  C 
      2      2  O        1   2.235254(     1)
      3      3  H        1   2.132636(     2)      2   87.607(    13)
      4      4  H        1   1.802059(     3)      2  125.001(    14)      3   39.864(    24)      0
      5      5  H        1   1.087867(     4)      2   87.834(    15)      3  144.891(    25)      0
      6      6  H        1   2.147979(     5)      2  129.461(    16)      5   98.692(    26)      0
      7      7  H        1   2.144176(     6)      2  106.036(    17)      5  149.263(    27)      0
      8      8  H        2   1.033760(     7)      1   78.250(    18)      5   91.146(    28)      0
      9      9  H        1   2.091146(     8)      2   80.667(    19)      8 -162.505(    29)      0
     10     10  H        2   0.966062(     9)      1  125.753(    20)      5   -8.519(    30)      0
     11     11  C        1   1.457002(    10)      2   85.655(    21)     10 -124.225(    31)      0
     12     12  C        1   1.480216(    11)     11  124.151(    22)      2  108.506(    32)      0
     13     13  O       11   1.317139(    12)      1  117.794(    23)     12  157.046(    33)      0
 ---------------------------------------------------------------------------------------------------
                         Z-Matrix orientation:                         
 ---------------------------------------------------------------------
 Center     Atomic      Atomic             Coordinates (Angstroms)
 Number     Number       Type             X           Y           Z
 ---------------------------------------------------------------------
      1          6           0        0.000000    0.000000    0.000000
      2          8           0        0.000000    0.000000    2.235254
      3          1           0        2.130776    0.000000    0.089059
      4          1           0        1.133047   -0.946155   -1.033641
      5          1           0       -0.889307   -0.625217    0.041123
      6          1           0       -0.737792    1.485192   -1.365167
      7          1           0        0.843232    1.880320   -0.592323
      8          1           0        0.598522   -0.816157    2.024730
      9          1           0       -0.663600    1.953850    0.339115
     10          1           0       -0.701077   -0.350920    2.799720
     11          6           0        1.268379   -0.708439    0.110390
     12          6           0       -0.131213    1.403827   -0.450657
     13          8           0        1.326211   -1.740918    0.926170
 ---------------------------------------------------------------------
                    Distance matrix (angstroms):
                    1          2          3          4          5
     1  C    0.000000
     2  O    2.235254   0.000000
     3  H    2.132636   3.024295   0.000000
     4  H    1.802059   3.586736   1.775142   0.000000
     5  H    1.087867   2.448668   3.084493   2.312582   0.000000
     6  H    2.147979   3.963984   3.542493   3.085677   2.540558
     7  H    2.144176   3.498833   2.378582   2.875363   3.111376
     8  H    2.263597   1.033760   2.600142   3.107451   2.486925
     9  H    2.091146   2.802363   3.418858   3.677285   2.606017
    10  H    2.907419   0.966062   3.935762   4.291034   2.778584
    11  C    1.457002   2.574047   1.116275   1.176278   2.160401
    12  C    1.480216   3.033490   2.716361   2.731417   2.221165
    13  O    2.376430   2.550163   2.092576   2.123633   2.633746
                    6          7          8          9         10
     6  H    0.000000
     7  H    1.803622   0.000000
     8  H    4.309681   3.765612   0.000000
     9  H    1.769102   1.772999   3.479538   0.000000
    10  H    4.551807   4.343879   1.583039   3.371639   0.000000
    11  C    3.318736   2.715921   2.031012   3.297368   3.352473
    12  C    1.100404   1.093918   3.404171   1.099864   3.737490
    13  O    4.462972   3.956318   1.609829   4.237368   3.090660
                   11         12         13
    11  C    0.000000
    12  C    2.595245   0.000000
    13  O    1.317139   3.729498   0.000000
 Stoichiometry    C3H8O2
 Framework group  C1[X(C3H8O2)]
 Deg. of freedom    33
 Full point group                 C1      NOp   1
 Largest Abelian subgroup         C1      NOp   1
 Largest concise Abelian subgroup C1      NOp   1
                         Standard orientation:                         
 ---------------------------------------------------------------------
 Center     Atomic      Atomic             Coordinates (Angstroms)
 Number     Number       Type             X           Y           Z
 ---------------------------------------------------------------------
      1          6           0       -0.612677   -0.212037    0.432202
      2          8           0        0.554324    1.595762   -0.173051
      3          1           0        0.194454   -1.195911   -1.279133
      4          1           0       -0.014976   -1.909182    0.332856
      5          1           0       -0.424381    0.063880    1.467513
      6          1           0       -2.739207   -0.480097    0.573028
      7          1           0       -2.077389   -0.513364   -1.104453
      8          1           0        1.290257    0.870386   -0.143188
      9          1           0       -2.185953    1.009949   -0.203756
     10          1           0        0.870578    2.288548    0.421346
     11          6           0        0.446487   -0.975696   -0.214213
     12          6           0       -1.982192   -0.066833   -0.110368
     13          8           0        1.692791   -0.671614    0.084309
 ---------------------------------------------------------------------
 Rotational constants (GHZ):      6.1832652      3.7931912      2.5711476
 Standard basis: 6-31++G(d,p) (6D, 7F)
 The following finite field(s) will be applied:
 An electric field of              0.0000  0.0000  0.0050
 There are   143 symmetry adapted basis functions of A   symmetry.
 Integral buffers will be    131072 words long.
 Raffenetti 2 integral format.
 Two-electron integral symmetry is turned on.
   143 basis functions,   224 primitive gaussians,   143 cartesian basis functions
    21 alpha electrons       21 beta electrons
       nuclear repulsion energy       187.5183148762 Hartrees.
 NAtoms=   13 NActive=   13 NUniq=   13 SFac= 1.00D+00 NAtFMM=   50 NAOKFM=F Big=F
 One-electron integrals computed using PRISM.
 PrsmSu:  requested number of processors reduced to:  10 ShMem   1 Linda.
 NBasis=   143 RedAO= T  NBF=   143
 NBsUse=   143 1.00D-06 NBFU=   143
 The nuclear repulsion energy is now       187.5183148762 hartrees.
 Initial guess read from the read-write file.
 B after Tr=     0.000000    0.000000    0.000000
         Rot=    1.000000    0.000000    0.000000    0.000000 Ang=   0.00 deg.
 Initial guess orbital symmetries:
       Occupied  (A) (A) (A) (A) (A) (A) (A) (A) (A) (A) (A) (A)
                 (A) (A) (A) (A) (A) (A) (A) (A) (A)
       Virtual   (A) (A) (A) (A) (A) (A) (A) (A) (A) (A) (A) (A)
                 (A) (A) (A) (A) (A) (A) (A) (A) (A) (A) (A) (A)
                 (A) (A) (A) (A) (A) (A) (A) (A) (A) (A) (A) (A)
                 (A) (A) (A) (A) (A) (A) (A) (A) (A) (A) (A) (A)
                 (A) (A) (A) (A) (A) (A) (A) (A) (A) (A) (A) (A)
                 (A) (A) (A) (A) (A) (A) (A) (A) (A) (A) (A) (A)
                 (A) (A) (A) (A) (A) (A) (A) (A) (A) (A) (A) (A)
                 (A) (A) (A) (A) (A) (A) (A) (A) (A) (A) (A) (A)
                 (A) (A) (A) (A) (A) (A) (A) (A) (A) (A) (A) (A)
[...]
     11  C        1   0.000000(    10)      2   0.000007(    21)     10  -0.000004(    31)     0
     12  C        1   0.000000(    11)     11   0.000005(    22)      2  -0.000012(    32)     0
     13  O       11   0.000000(    12)      1   0.000001(    23)     12   0.000001(    33)     0
 -----------------------------------------------------------------------------------------------
 Internal  Forces:  Max     0.000012110 RMS     0.000003545

 GradGradGradGradGradGradGradGradGradGradGradGradGradGradGradGradGradGrad
 Berny optimization.
 Search for a saddle point.
 Step number   1 out of a maximum of    2
 All quantities printed in internal units (Hartrees-Bohrs-Radians)
 Swaping is turned off.
 Second derivative matrix not updated -- analytic derivatives used.
 ITU=  0
     Eigenvalues ---   -0.06090   0.00885   0.01526   0.01701   0.02259
     Eigenvalues ---    0.02665   0.03922   0.04945   0.05869   0.07152
     Eigenvalues ---    0.07176   0.08396   0.09657   0.10272   0.16680
     Eigenvalues ---    0.17506   0.25204   0.33835   0.35265   0.36264
     Eigenvalues ---    0.40918   0.48688   0.51010   0.53882   0.62246
     Eigenvalues ---    1.08283   1.38507   2.10856   2.40769   2.81332
     Eigenvalues ---    3.91458   6.86260  18.77534
 Eigenvectors required to have negative eigenvalues:
                          B3        B1        B7        A11       A2
   1                    0.59095  -0.58861   0.27732  -0.22062  -0.20024
                          A8        D10       B12       A3        A1
   1                   -0.18888  -0.18747   0.15171   0.11851  -0.07955
 Angle between quadratic step and forces=  83.51 degrees.
 Linear search not attempted -- option 19 set.
 Variable       Old X    -DE/DX   Delta X   Delta X   Delta X     New X
                                 (Linear)    (Quad)   (Total)
    B1        4.19177   0.00000   0.00000  -0.00001  -0.00001   4.19177
    B2        4.03556   0.00000   0.00000   0.00000   0.00000   4.03556
    B3        3.41351   0.00000   0.00000   0.00001   0.00001   3.41352
    B4        2.05480   0.00000   0.00000   0.00000   0.00000   2.05480
    B5        4.08497   0.00000   0.00000   0.00000   0.00000   4.08497
    B6        4.03710   0.00000   0.00000  -0.00001  -0.00001   4.03709
    B7        1.94816   0.00000   0.00000   0.00000   0.00000   1.94816
    B8        3.93206   0.00000   0.00000   0.00000   0.00000   3.93206
    B9        1.82477   0.00000   0.00000   0.00000   0.00000   1.82477
   B10        2.75461   0.00000   0.00000   0.00000   0.00000   2.75461
   B11        2.79727   0.00000   0.00000   0.00000   0.00000   2.79727
   B12        2.48931   0.00000   0.00000   0.00000   0.00000   2.48931
    A1        1.55148   0.00000   0.00000  -0.00001  -0.00001   1.55148
    A2        2.19011   0.00000   0.00000   0.00000   0.00000   2.19011
    A3        1.51648   0.00000   0.00000   0.00000   0.00000   1.51648
    A4        2.11023   0.00000   0.00000   0.00000   0.00000   2.11023
    A5        2.00864   0.00000   0.00000  -0.00001  -0.00001   2.00863
    A6        1.36689   0.00000   0.00000   0.00000   0.00000   1.36689
    A7        1.34749   0.00001   0.00000   0.00000   0.00000   1.34749
    A8        2.08751   0.00000   0.00000   0.00001   0.00001   2.08752
    A9        1.50957   0.00001   0.00000   0.00000   0.00000   1.50957
   A10        2.15878   0.00000   0.00000   0.00000   0.00000   2.15878
   A11        2.04659   0.00000   0.00000   0.00000   0.00000   2.04659
    D1        0.71212   0.00000   0.00000  -0.00001  -0.00001   0.71212
    D2        2.51930   0.00000   0.00000   0.00000   0.00000   2.51930
    D3        1.63436   0.00000   0.00000   0.00001   0.00001   1.63437
    D4        2.61651   0.00000   0.00000   0.00001   0.00001   2.61652
    D5        1.55808   0.00000   0.00000  -0.00001  -0.00001   1.55806
    D6       -2.67379   0.00000   0.00000  -0.00002  -0.00002  -2.67381
    D7       -0.23498   0.00000   0.00000  -0.00002  -0.00002  -0.23500
    D8       -2.24903   0.00000   0.00000  -0.00002  -0.00002  -2.24905
    D9        1.89777  -0.00001   0.00000  -0.00001  -0.00001   1.89776
   D10        2.72059   0.00000   0.00000   0.00000   0.00000   2.72059
         Item               Value     Threshold  Converged?
 Maximum Force            0.000012     0.000015     YES
 RMS     Force            0.000004     0.000010     YES
 Maximum Displacement     0.000020     0.000060     YES
 RMS     Displacement     0.000008     0.000040     YES
 Predicted change in Energy=-5.397759D-11
 Optimization completed.
    -- Stationary point found.
                       ----------------------------
                       !   Optimized Parameters   !
                       ! (Angstroms and Degrees)  !
 ----------------------                            ----------------------
 !      Name          Value   Derivative information (Atomic Units)     !
 ------------------------------------------------------------------------
 !       B1          2.2182   -DE/DX =    0.0                           !
 !       B2          2.1355   -DE/DX =    0.0                           !
 !       B3          1.8063   -DE/DX =    0.0                           !
 !       B4          1.0874   -DE/DX =    0.0                           !
 !       B5          2.1617   -DE/DX =    0.0                           !
 !       B6          2.1363   -DE/DX =    0.0                           !
 !       B7          1.0309   -DE/DX =    0.0                           !
 !       B8          2.0808   -DE/DX =    0.0                           !
 !       B9          0.9656   -DE/DX =    0.0                           !
 !       B10         1.4577   -DE/DX =    0.0                           !
 !       B11         1.4803   -DE/DX =    0.0                           !
 !       B12         1.3173   -DE/DX =    0.0                           !
 !       A1         88.8933   -DE/DX =    0.0                           !
 !       A2        125.4838   -DE/DX =    0.0                           !
 !       A3         86.8877   -DE/DX =    0.0                           !
 !       A4        120.9072   -DE/DX =    0.0                           !
 !       A5        115.0867   -DE/DX =    0.0                           !
 !       A6         78.3168   -DE/DX =    0.0                           !
 !       A7         77.2053   -DE/DX =    0.0                           !
 !       A8        119.6055   -DE/DX =    0.0                           !
 !       A9         86.4919   -DE/DX =    0.0                           !
 !       A10       123.6892   -DE/DX =    0.0                           !
 !       A11       117.2611   -DE/DX =    0.0                           !
 !       D1         40.8017   -DE/DX =    0.0                           !
 !       D2        144.3454   -DE/DX =    0.0                           !
 !       D3         93.6418   -DE/DX =    0.0                           !
 !       D4        149.9152   -DE/DX =    0.0                           !
 !       D5         89.2712   -DE/DX =    0.0                           !
 !       D6       -153.1971   -DE/DX =    0.0                           !
 !       D7        -13.4634   -DE/DX =    0.0                           !
 !       D8       -128.86     -DE/DX =    0.0                           !
 !       D9        108.734    -DE/DX =    0.0                           !
 !       D10       155.8782   -DE/DX =    0.0                           !
 ------------------------------------------------------------------------
 GradGradGradGradGradGradGradGradGradGradGradGradGradGradGradGradGradGrad

 1\1\GINC-C14N12\Freq\RB3LYP\6-31++G(d,p)\C3H8O2\ROOT\27-Apr-2018\1\\#N
  Geom=AllCheck Guess=TCheck SCRF=Check GenChk RB3LYP/6-31++G(d,p) Freq
 \\Title Card Required\\0,1\C\O,1,B1\H,1,B2,2,A1\H,1,B3,2,A2,3,D1,0\H,1
 ,B4,2,A3,3,D2,0\H,1,B5,2,A4,5,D3,0\H,1,B6,2,A5,5,D4,0\H,2,B7,1,A6,5,D5
 ,0\H,1,B8,2,A7,8,D6,0\H,2,B9,1,A8,5,D7,0\C,1,B10,2,A9,10,D8,0\C,1,B11,
 11,A10,2,D9,0\O,11,B12,1,A11,12,D10,0\\B1=2.21819063\B2=2.13552592\B3=
 1.80634912\B4=1.08735122\B5=2.16167252\B6=2.1363435\B7=1.03092344\B8=2
 .08075772\B9=0.96562454\B10=1.45767644\B11=1.48025078\B12=1.31728829\A
 1=88.89329563\A2=125.48384753\A3=86.88772803\A4=120.90721269\A5=115.08
 665601\A6=78.31676159\A7=77.20526837\A8=119.60552937\A9=86.49191983\A1
 0=123.68923178\A11=117.26109547\D1=40.80166797\D2=144.34539737\D3=93.6
 4180223\D4=149.91520635\D5=89.2711915\D6=-153.19710946\D7=-13.46343908
 \D8=-128.85995723\D9=108.73401813\D10=155.87818597\\Version=EM64L-G09R
 evB.01\State=1-A\HF=-269.4957995\RMSD=3.665e-09\RMSF=6.556e-04\ZeroPoi
 nt=0.1049635\Thermal=0.111456\Dipole=-1.1447594,1.4846159,-0.7980574\D
 ipoleDeriv=0.3197153,-0.0663894,-0.4265293,-0.2628909,0.7013199,-0.001
 7916,-0.5485731,0.2795264,0.8249541,-0.5156746,0.1442205,0.2599249,0.1
 967278,-0.5266835,-0.2077967,0.2512272,-0.235541,-1.1229755,0.0043297,
 -0.1521838,0.0251438,-0.2046898,-0.0528458,0.0836779,-0.0449583,0.1099
 671,0.0667295,-0.0717238,0.1253629,-0.0072605,0.0583212,0.0008019,-0.0
 753448,-0.038936,0.0156879,-0.2675994,-0.0203196,-0.0491745,0.0237219,
 -0.0477685,-0.0329794,-0.0084534,0.044624,0.0146222,-0.0297163,-0.0324
 488,0.012964,-0.0825301,0.0143121,0.0317348,0.0138182,-0.1094715,0.094
 8383,0.004929,-0.0228245,-0.0421283,0.048064,0.0154861,0.0824675,0.003
 6092,0.007499,0.0785576,0.0460951,0.3103166,-0.1013216,-0.2105548,-0.1
 498666,0.3248988,0.3135015,-0.1034492,0.1295367,0.5323762,0.1113732,0.
 0207846,0.0117979,0.0464145,0.0654363,0.0214318,0.0066226,-0.0027075,0
 .0008529,0.241541,-0.0589225,-0.0502016,-0.0756443,0.2496245,0.0311319
 ,0.045258,0.0255274,0.2534425,0.1710835,0.1051078,0.3351787,0.111612,0
 .5788195,-0.6148296,0.5647688,-0.8182273,0.4897953,0.0347154,0.0604435
 ,0.0273766,0.0882361,-0.3464409,0.1091171,0.110241,-0.1362431,0.109079
 9,-0.5300834,0.0012368,0.0458685,0.2097502,-1.0761536,0.3319284,-0.184
 8526,0.4444553,-0.9079633\Polar=55.3552059,-10.4550611,59.578278,-3.03
 10019,-5.3118718,62.4009907\PG=C01 [X(C3H8O2)]\NImag=1\\0.61625625,0.0
 5511502,0.55139059,0.03938392,-0.11203947,0.14952923,-0.01924961,-0.00
 157288,-0.00122898,0.47825456,0.00058612,-0.00988517,-0.02200303,0.006
 09397,0.31924230,-0.00901390,-0.00858569,0.02753764,-0.25686588,-0.026
 09942,0.19393200,-0.02806194,-0.01638433,-0.00153817,0.00037213,0.0014
 3433,-0.00177716,0.20434766,0.01523764,0.00451982,-0.00528657,-0.00017
 662,0.00102916,0.00281463,0.11674173,0.14312114,0.00655208,-0.00587932
 ,-0.00561687,0.00084197,-0.00180091,0.00227642,0.00231798,-0.01320254,
 0.04803062,0.00490277,-0.00545655,-0.00254601,-0.00025803,-0.00478779,
 0.00868470,-0.00237268,-0.01448896,-0.02302172,0.02154752,-0.00932274,
 -0.00304691,-0.00794750,0.00121377,0.00335485,-0.00320422,-0.00250491,
 -0.00404268,-0.00933376,0.00834353,0.05415546,0.00647142,-0.02196460,-
 0.03559762,0.00375151,-0.00433944,-0.00120600,-0.00024734,-0.00557643,
 -0.00574169,0.00026361,0.05002328,0.18304965,-0.24707950,-0.13382647,0
 .01325326,0.00241233,0.00097606,0.00250166,-0.00403225,0.00384724,0.00
 060377,0.00139988,-0.00043333,0.00006259,0.25602888,-0.14009747,-0.154
 86364,0.01065725,0.00051100,0.00032470,-0.00168520,0.00285384,-0.00133
 032,0.00174234,-0.00074499,0.00157388,0.00182353,0.14431862,0.15510395
 ,0.00581408,0.01023140,-0.03651361,-0.00503060,-0.00112096,-0.01150704
 ,0.00079953,-0.00029459,0.00340005,0.00125984,0.00168583,0.00279915,-0
 .01468290,-0.01584210,0.03479065,-0.00137124,0.00383790,0.00120914,0.0
 0000733,-0.00030926,0.00060186,0.00053739,0.00036782,-0.00001510,0.001
 15823,-0.00062389,0.00052020,0.00074558,0.00062683,0.00097619,0.225617
 27,0.03098071,-0.00720434,0.02048373,-0.00031355,0.00031295,-0.0003833
 2,-0.00011676,0.00033875,0.00007545,0.00108228,-0.00037606,-0.00120996
 ,-0.00068099,0.00121688,-0.00094402,-0.03172310,0.05629576,-0.00498104
 ,-0.00308492,-0.00506536,0.00036967,0.00050052,-0.00033489,-0.00003563
 ,-0.00039475,-0.00007073,-0.00079221,0.00069923,0.00039485,0.00018420,
 -0.00000693,0.00014060,0.14021256,-0.02782314,0.15407672,0.00625679,-0
 .00452611,-0.00147821,0.00016482,0.00041924,-0.00039544,-0.00013350,-0
 .00134375,0.00037952,-0.00100444,-0.00005310,-0.00085198,0.00029387,0.
 00131665,0.00143081,-0.01685944,-0.00633669,0.01097898,0.25738829,-0.0
 3098023,-0.01382071,0.01583454,-0.00000961,0.00005148,-0.00077309,0.00
 090655,0.00043244,0.00036219,0.00042847,-0.00050260,-0.00032616,0.0016
 4662,-0.00477827,0.00112470,0.00420477,0.00057690,-0.00349473,0.078723
 78,0.08148924,0.00781321,-0.00198160,-0.00402269,-0.00014217,0.0009846
 5,-0.00085384,-0.00074185,-0.00029652,-0.00018366,-0.00042851,0.000034
 62,-0.00022151,-0.00035161,0.00060531,0.00139707,-0.01678438,-0.007700
 69,0.00998658,-0.10480817,-0.04359945,0.09773430,0.00561623,0.00152555
 ,-0.02912369,-0.10500681,0.07291484,0.04261234,0.00131074,-0.00081893,
 -0.00147702,-0.00721911,0.00377667,-0.00385460,-0.00108109,0.00059913,
 0.00087101,-0.00005169,0.00052170,-0.00020452,0.00005067,-0.00009134,0
 .00017360,0.12141334,-0.00146608,-0.00122739,0.03173150,0.11755286,-0.
 20107377,-0.04257507,-0.00213907,-0.00115487,0.00296861,0.00741936,-0.
 00458003,0.00523922,0.00001313,0.00005225,-0.00194524,-0.00001208,-0.0
 0064030,0.00026883,-0.00011472,-0.00003894,-0.00009278,-0.08510165,0.1
 8401134,-0.00685782,0.00594746,0.00958796,0.02207206,-0.00484536,-0.04
 116692,-0.00095229,-0.00066607,0.00141968,0.00319331,-0.00070455,0.002
 37457,-0.00046963,0.00005822,-0.00210116,0.00019309,-0.00054905,-0.000
 07671,-0.00017542,-0.00000065,-0.00032110,-0.01875997,-0.00665132,0.05
 405214,-0.00300336,0.00166221,0.00267249,-0.00008635,-0.00015420,0.000
 15897,-0.00047635,-0.00045636,0.00057761,0.00021515,-0.00023848,-0.001
 01471,-0.00010980,0.00030198,0.00130927,0.00323249,-0.01532935,-0.0209
 4374,-0.00480222,0.01587956,0.02175922,-0.00007905,0.00026460,0.000236
 55,0.04794735,0.00683269,-0.02106182,-0.02716327,-0.00140698,0.0017443
 7,-0.00000476,0.00008340,0.00031676,-0.00011044,-0.00225624,0.00087877
 ,0.00063245,-0.00020058,-0.00023879,0.00236849,-0.00127094,0.00338346,
 0.00454934,-0.00169959,0.00652564,0.00912833,0.00121346,-0.00108852,-0
 .00115700,-0.02391902,0.13232116,-0.00054394,-0.00074504,0.01194398,0.
 00062962,0.00063693,-0.00223399,0.00000467,0.00011109,-0.00009388,0.00
 071512,0.00024969,-0.00080470,0.00039124,-0.00045840,-0.00087822,0.002
 92575,-0.01023940,-0.01501792,0.00166764,-0.00729176,-0.01041683,-0.00
 064424,0.00035542,-0.00032831,-0.03373606,0.13172162,0.23692225,0.0002
 2716,0.00066025,0.00857659,-0.34591377,-0.10624695,0.20061608,-0.00009
 353,0.00028512,0.00016809,0.00179272,-0.00091716,-0.00090529,0.0001636
 7,-0.00039816,-0.00095968,0.00008092,0.00004643,-0.00020825,-0.0000855
 6,0.00000742,-0.00021816,-0.01503106,-0.01807419,0.00937471,0.00006869
 ,0.00027843,-0.00039793,0.35951293,0.00033771,-0.00052910,0.00020222,-
 0.14776814,-0.08900165,0.09624684,0.00008603,-0.00000336,0.00011381,0.
 00035834,-0.00006925,0.00066537,-0.00008589,0.00025772,-0.00050212,-0.
 00001290,0.00008515,0.00016308,-0.00001867,-0.00005947,-0.00002278,0.0
 2480257,0.01369099,-0.01421817,-0.00042728,0.00008047,0.00043541,0.121
 74145,0.08032793,0.00506999,0.00238295,0.00779193,0.20392537,0.0738976
 0,-0.13386872,-0.00069227,-0.00006645,0.00019119,0.00170872,-0.0014057
 3,0.00012167,-0.00061506,-0.00066109,-0.00112751,0.00013637,0.00007530
 ,-0.00026247,-0.00017684,-0.00010377,-0.00014845,0.00632443,0.00427410
 ,-0.00390380,0.00003179,0.00024844,-0.00061655,-0.21364947,-0.07986634
 ,0.13720311,-0.23629664,0.04809584,-0.01694308,-0.00022471,0.00249226,
 0.00714460,-0.18265959,-0.10441796,-0.00258407,-0.02543921,0.00080531,
 -0.00648978,-0.02092844,0.01673217,0.00782562,0.00012678,-0.00449289,0
 .00197846,0.00108323,-0.00079291,0.00100401,0.00050523,-0.00197876,0.0
 0739933,0.00062536,-0.00053126,-0.00101018,-0.00026133,0.00045589,0.00
 002553,0.53905537,0.04683802,-0.09730317,0.02003379,0.01411275,-0.0155
 9022,-0.00989445,-0.09270673,-0.12082337,0.00056046,-0.00055829,-0.045
 16860,-0.05583184,-0.02174764,0.01029271,0.00223721,-0.00032717,-0.001
 65177,-0.00003252,0.00462379,0.00047959,0.00006970,-0.01245656,0.01944
 693,0.01193405,0.00154289,-0.00221341,0.00000355,-0.00004336,-0.000974
 62,-0.00096329,0.03517462,0.52563420,-0.04160186,0.05516406,0.02184602
 ,0.00060850,0.02325986,-0.03190205,-0.00866672,0.00629873,-0.03625289,
 0.03702383,-0.06514100,-0.11508966,0.00102608,-0.00032286,0.00092361,-
 0.00447352,0.00058565,0.00234498,0.00000151,-0.00219484,0.00072682,0.0
 3542196,-0.02844360,-0.03402225,-0.00074744,0.00373546,-0.00172874,-0.
 00571093,-0.00084620,-0.00702510,0.01535245,-0.11636054,0.33162810,-0.
 09823020,0.01050524,-0.00169029,0.00134702,-0.00067631,-0.00028104,0.0
 0127534,0.00166737,-0.00102303,-0.00051598,0.00111348,0.00251405,0.007
 07717,-0.02365657,0.00191595,-0.21287048,0.02544698,-0.12646146,-0.242
 00383,-0.07002178,0.09295926,-0.00127614,0.00127712,0.00086176,-0.0431
 3302,0.02212076,0.03018496,-0.00008377,0.00006191,-0.00048640,0.008384
 27,0.01878983,-0.00837677,0.58375551,0.00182276,-0.21287278,0.04513431
 ,-0.00041478,-0.00174236,0.00598038,-0.00038530,0.00259846,-0.00092304
 ,0.00313362,-0.00264756,0.00458038,0.00561431,-0.00805565,0.00572025,0
 .02479536,-0.05019024,0.02821908,-0.06963416,-0.07135889,0.04292171,-0
 .00002791,-0.00000399,0.00079629,0.02131496,-0.12089516,-0.11513946,0.
 00087841,-0.00040427,0.00103471,0.00284804,-0.01694309,0.00251252,0.00
 768264,0.48027483,-0.00608447,0.06776129,-0.09609664,-0.00046568,0.003
 88292,0.00093452,0.00166686,0.00074393,-0.00109658,-0.00492215,0.00025
 929,0.00543489,-0.00204890,0.00481833,0.00732750,-0.12618651,0.0263776
 8,-0.14520290,0.09303253,0.04064055,-0.09355668,0.00051816,-0.00014789
 ,-0.00129811,0.03016173,-0.12512700,-0.21640166,0.00002790,0.00031464,
 -0.00026182,0.00021449,-0.00191789,0.00990954,0.01180964,-0.02065629,0
 .52901550,0.00003328,0.04036432,-0.01054697,-0.01181891,0.02725772,0.0
 0601321,0.00998659,-0.01644433,0.01667992,0.00579319,-0.00115915,-0.00
 021968,0.00510970,-0.00236303,-0.00152912,-0.00035313,0.00091523,-0.00
 009701,-0.00034867,0.00009870,-0.00023445,0.00084875,-0.01764052,-0.01
 611567,-0.00039892,0.00075587,-0.00018665,-0.00037709,0.00046899,-0.00
 160216,-0.08397032,0.00675783,-0.01985709,-0.00372589,0.00237207,0.002
 27640,0.07922142,0.02411585,-0.03409537,0.03036248,0.01217821,-0.00876
 664,-0.01183662,-0.00786878,-0.02500192,0.02542714,0.00752723,0.000470
 74,0.02628420,0.00055892,0.00044459,-0.00271886,0.00044666,-0.00214714
 ,0.00043690,-0.00135666,0.00100361,-0.00005051,-0.00685753,-0.00739370
 ,0.01005613,-0.00044150,0.00024707,0.00036035,0.00178233,-0.00340055,0
 .00115357,0.00560965,-0.25518518,0.12175276,0.00568933,0.00224070,0.00
 305044,-0.04138370,0.33158380,-0.00202168,0.01279347,-0.04532397,0.031
 53459,-0.04295336,-0.00160712,0.00986242,0.01581552,-0.00626164,-0.021
 13852,0.03478480,-0.03551359,0.00014529,-0.00072841,0.00134891,0.00068
 435,0.00125177,-0.00091275,0.00039506,-0.00017755,-0.00012000,-0.03185
 747,0.03501821,0.01578403,-0.00046567,0.00117833,-0.00034542,0.0032863
 5,-0.00268576,0.00190653,-0.01391738,0.15016177,-0.14135837,-0.0019266
 2,-0.00018083,0.00129245,0.02541928,-0.20427797,0.21111095\\-0.0003673
 0,-0.00323655,0.00000090,0.00036685,0.00099265,0.00000007,0.00000011,0
 .00224315,0.00000002,0.00000001,0.00000046,0.00000094,-0.00000012,0.00
 000018,-0.00000017,0.00000074,-0.00000047,0.00000035,-0.00000127,0.000
 00040,0.00000045,0.00000032,0.00000016,-0.00000021,-0.00000008,0.00000
 192,0.00000341,-0.00000002,-0.00000012,-0.00000005,-0.00000026,-0.0000
 0017,-0.00000122,0.00000114,-0.00000168,-0.00000484,-0.00000013,0.0000
 0006,0.00000033\\\@


 PATIENCE IS THE ABILITY TO IDLE YOUR MOTOR WHEN
 YOU FEEL LIKE STRIPPING YOUR GEARS.
 Job cpu time:  0 days  0 hours  8 minutes 57.0 seconds.
 File lengths (MBytes):  RWF=   1312 Int=      0 D2E=      0 Chk=     32 Scr=     32
 Normal termination of Gaussian 09 at Fri Apr 27 11:09:58 2018.
