 Entering Gaussian System, Link 0=g09
 Input=H2O-term-field.gjf
 Output=H2O-term-field.log
 Initial command:
 /share/home/zxchen/g09/l1.exe /scratch/zxchen/Gau-32102.inp -scrdir=/scratch/zxchen/
 Entering Link 1 = /share/home/zxchen/g09/l1.exe PID=     32103.
  
 Copyright (c) 1988,1990,1992,1993,1995,1998,2003,2009,2010,
            Gaussian, Inc.  All Rights Reserved.
  
 This is part of the Gaussian(R) 09 program.  It is based on
 the Gaussian(R) 03 system (copyright 2003, Gaussian, Inc.),
 the Gaussian(R) 98 system (copyright 1998, Gaussian, Inc.),
 the Gaussian(R) 94 system (copyright 1995, Gaussian, Inc.),
 the Gaussian 92(TM) system (copyright 1992, Gaussian, Inc.),
 the Gaussian 90(TM) system (copyright 1990, Gaussian, Inc.),
 the Gaussian 88(TM) system (copyright 1988, Gaussian, Inc.),
 the Gaussian 86(TM) system (copyright 1986, Carnegie Mellon
 University), and the Gaussian 82(TM) system (copyright 1983,
 Carnegie Mellon University). Gaussian is a federally registered
 trademark of Gaussian, Inc.
  
 This software contains proprietary and confidential information,
 including trade secrets, belonging to Gaussian, Inc.
  
 This software is provided under written license and may be
 used, copied, transmitted, or stored only in accord with that
 written license.
  
 The following legend is applicable only to US Government
 contracts under FAR:
  
                    RESTRICTED RIGHTS LEGEND
  
 Use, reproduction and disclosure by the US Government is
 subject to restrictions as set forth in subparagraphs (a)
 and (c) of the Commercial Computer Software - Restricted
 Rights clause in FAR 52.227-19.
  
 Gaussian, Inc.
 340 Quinnipiac St., Bldg. 40, Wallingford CT 06492
  
  
 ---------------------------------------------------------------
 Warning -- This program may not be used in any manner that
 competes with the business of Gaussian, Inc. or will provide
 assistance to any competitor of Gaussian, Inc.  The licensee
 of this program is prohibited from giving any competitor of
 Gaussian, Inc. access to this program.  By using this program,
 the user acknowledges that Gaussian, Inc. is engaged in the
 business of creating and licensing software in the field of
 computational chemistry and represents and warrants to the
 licensee that it is not a competitor of Gaussian, Inc. and that
 it will not use this program in any manner prohibited above.
 ---------------------------------------------------------------
  

 Cite this work as:
 Gaussian 09, Revision B.01,
 M. J. Frisch, G. W. Trucks, H. B. Schlegel, G. E. Scuseria, 
 M. A. Robb, J. R. Cheeseman, G. Scalmani, V. Barone, B. Mennucci, 
 G. A. Petersson, H. Nakatsuji, M. Caricato, X. Li, H. P. Hratchian, 
 A. F. Izmaylov, J. Bloino, G. Zheng, J. L. Sonnenberg, M. Hada, 
 M. Ehara, K. Toyota, R. Fukuda, J. Hasegawa, M. Ishida, T. Nakajima, 
 Y. Honda, O. Kitao, H. Nakai, T. Vreven, J. A. Montgomery, Jr., 
 J. E. Peralta, F. Ogliaro, M. Bearpark, J. J. Heyd, E. Brothers, 
 K. N. Kudin, V. N. Staroverov, T. Keith, R. Kobayashi, J. Normand, 
 K. Raghavachari, A. Rendell, J. C. Burant, S. S. Iyengar, J. Tomasi, 
 M. Cossi, N. Rega, J. M. Millam, M. Klene, J. E. Knox, J. B. Cross, 
 V. Bakken, C. Adamo, J. Jaramillo, R. Gomperts, R. E. Stratmann, 
 O. Yazyev, A. J. Austin, R. Cammi, C. Pomelli, J. W. Ochterski, 
 R. L. Martin, K. Morokuma, V. G. Zakrzewski, G. A. Voth, 
 P. Salvador, J. J. Dannenberg, S. Dapprich, A. D. Daniels, 
 O. Farkas, J. B. Foresman, J. V. Ortiz, J. Cioslowski, 
 and D. J. Fox, Gaussian, Inc., Wallingford CT, 2010.
 
 ******************************************
 Gaussian 09:  EM64L-G09RevB.01 12-Aug-2010
                 6-Mar-2018 
 ******************************************
 %chk=ts\H2O-term-field.chk
 %nprocshared=24
 Will use up to   24 processors via shared memory.
 ----------------------------------------------------------------------
 # field=z+50 freq opt=(z-matrix,ts,calcfc,noeigen) nosymm rb3lyp/6-31+
 +g(d,p)
 ----------------------------------------------------------------------
 1/5=1,10=4,11=1,14=-1,18=40,26=3,38=1/1,3;
 2/12=2,15=1,17=6,18=5,29=3,40=1/2;
 3/5=1,6=6,7=1111,11=2,14=3,15=50,16=1,25=1,30=1,71=2,74=-5,116=1/1,2,3;
 4//1;
 5/5=2,38=5/2;
 8/6=4,10=90,11=11/1;
 11/6=1,8=1,9=11,15=111,16=1,31=1/1,2,10;
 10/6=1,7=6,13=1,31=1/2;
 6/7=2,8=2,9=2,10=2,28=1/1;
 7/10=1,18=20,25=1,30=1/1,2,3,16;
 1/5=1,10=4,11=1,14=-1,18=40/3(2);
 2/15=1,29=3/2;
 99//99;
 2/15=1,29=3/2;
 3/5=1,6=6,7=1111,11=2,14=3,15=50,16=1,25=1,30=1,71=1,74=-5,116=1/1,2,3;
 4/5=5,16=3/1;
 5/5=2,38=5/2;
 7/30=1/1,2,3,16;
 1/5=1,11=1,14=-1,18=40/3(-5);
 2/15=1,29=3/2;
 6/7=2,8=2,9=2,10=2,19=2,28=1/1;
 99/9=1/99;
 ------------
 OH-BACK-TERM
 ------------
 Symbolic Z-matrix:
 Charge =  0 Multiplicity = 1
 C
 O                    1     2.20329 
 H                    2    B1       1    A1
 H                    2    B2       1    A2       3    D1       0
 H                    1    B3       2    A3       3    D2       0
 H                    1    B4       2    A4       3    D3       0
 H                    1    B5       2    A5       3    D4       0
 H                    1    B6       2    A6       3    D5       0
 H                    1    B7       2    A7       3    D6       0
 H                    1    B8       2    A8       3    D7       0
 C                    1    B9       2    A9       3    D8       0
 C                    1    B10      2    A10      11   D9       0
 O                    12   B11      1    A11      2    D10      0
       Variables:
  B1                    0.96                     
  B2                    1.04473                  
  B3                    1.07                     
  B4                    1.07                     
  B5                    2.76608                  
  B6                    2.88703                  
  B7                    3.43834                  
  B8                    2.09921                  
  B9                    2.54685                  
  B10                   1.47699                  
  B11                   1.43                     
  A1                  109.94163                  
  A2                   71.37976                  
  A3                   98.99694                  
  A4                   76.87242                  
  A5                   76.16809                  
  A6                  111.81475                  
  A7                   95.76582                  
  A8                  126.38247                  
  A9                   95.91841                  
  A10                 101.64969                  
  A11                  94.21089                  
  D1                 -101.99684                  
  D2                    6.47843                  
  D3                 -109.92239                  
  D4                  170.80164                  
  D5                  174.47812                  
  D6                  147.87599                  
  D7                  110.88798                  
  D8                  159.41149                  
  D9                  -32.54484                  
  D10                 -37.76004                  
 

 GradGradGradGradGradGradGradGradGradGradGradGradGradGradGradGradGradGrad
 Berny optimization.
 Initialization pass.
                       ----------------------------
                       !    Initial Parameters    !
                       ! (Angstroms and Degrees)  !
 ----------------------                            ----------------------
 !      Name          Value   Derivative information (Atomic Units)     !
 ------------------------------------------------------------------------
 !       B1          0.96     calculate D2E/DX2 analytically            !
 !       B2          1.0447   calculate D2E/DX2 analytically            !
 !       B3          1.07     calculate D2E/DX2 analytically            !
 !       B4          1.07     calculate D2E/DX2 analytically            !
 !       B5          2.7661   calculate D2E/DX2 analytically            !
 !       B6          2.887    calculate D2E/DX2 analytically            !
 !       B7          3.4383   calculate D2E/DX2 analytically            !
 !       B8          2.0992   calculate D2E/DX2 analytically            !
 !       B9          2.5469   calculate D2E/DX2 analytically            !
 !       B10         1.477    calculate D2E/DX2 analytically            !
 !       B11         1.43     calculate D2E/DX2 analytically            !
 !       A1        109.9416   calculate D2E/DX2 analytically            !
 !       A2         71.3798   calculate D2E/DX2 analytically            !
 !       A3         98.9969   calculate D2E/DX2 analytically            !
 !       A4         76.8724   calculate D2E/DX2 analytically            !
 !       A5         76.1681   calculate D2E/DX2 analytically            !
 !       A6        111.8147   calculate D2E/DX2 analytically            !
 !       A7         95.7658   calculate D2E/DX2 analytically            !
 !       A8        126.3825   calculate D2E/DX2 analytically            !
 !       A9         95.9184   calculate D2E/DX2 analytically            !
 !       A10       101.6497   calculate D2E/DX2 analytically            !
 !       A11        94.2109   calculate D2E/DX2 analytically            !
 !       D1       -101.9968   calculate D2E/DX2 analytically            !
 !       D2          6.4784   calculate D2E/DX2 analytically            !
 !       D3       -109.9224   calculate D2E/DX2 analytically            !
 !       D4        170.8016   calculate D2E/DX2 analytically            !
 !       D5        174.4781   calculate D2E/DX2 analytically            !
 !       D6        147.876    calculate D2E/DX2 analytically            !
 !       D7        110.888    calculate D2E/DX2 analytically            !
 !       D8        159.4115   calculate D2E/DX2 analytically            !
 !       D9        -32.5448   calculate D2E/DX2 analytically            !
 !       D10       -37.76     calculate D2E/DX2 analytically            !
 ------------------------------------------------------------------------
 Trust Radius=3.00D-01 FncErr=1.00D-07 GrdErr=1.00D-06
 Number of steps in this run=     42 maximum allowed number of steps=    100.
 Search for a saddle point of order  1.
 GradGradGradGradGradGradGradGradGradGradGradGradGradGradGradGradGradGrad

 ---------------------------------------------------------------------------------------------------
                            Z-MATRIX (ANGSTROMS AND DEGREES)
   CD    Cent   Atom    N1       Length/X        N2       Alpha/Y        N3        Beta/Z          J
 ---------------------------------------------------------------------------------------------------
      1      1  C 
      2      2  O        1   2.203291(     1)
      3      3  H        2   0.960000(     2)      1  109.942(    13)
      4      4  H        2   1.044733(     3)      1   71.380(    14)      3 -101.997(    24)      0
      5      5  H        1   1.070000(     4)      2   98.997(    15)      3    6.478(    25)      0
      6      6  H        1   1.070000(     5)      2   76.872(    16)      3 -109.922(    26)      0
      7      7  H        1   2.766076(     6)      2   76.168(    17)      3  170.802(    27)      0
      8      8  H        1   2.887029(     7)      2  111.815(    18)      3  174.478(    28)      0
      9      9  H        1   3.438336(     8)      2   95.766(    19)      3  147.876(    29)      0
     10     10  H        1   2.099214(     9)      2  126.382(    20)      3  110.888(    30)      0
     11     11  C        1   2.546853(    10)      2   95.918(    21)      3  159.411(    31)      0
     12     12  C        1   1.476987(    11)      2  101.650(    22)     11  -32.545(    32)      0
     13     13  O       12   1.430000(    12)      1   94.211(    23)      2  -37.760(    33)      0
 ---------------------------------------------------------------------------------------------------
                         Z-Matrix orientation:                         
 ---------------------------------------------------------------------
 Center     Atomic      Atomic             Coordinates (Angstroms)
 Number     Number       Type             X           Y           Z
 ---------------------------------------------------------------------
      1          6           0        0.000000    0.000000    0.000000
      2          8           0        0.000000    0.000000    2.203291
      3          1           0        0.902439    0.000000    2.530711
      4          1           0       -0.205789   -0.968423    1.869714
      5          1           0        1.050087   -0.119242   -0.167328
      6          1           0       -0.355071    0.979677    0.243019
      7          1           0       -2.651325   -0.429343    0.661298
      8          1           0       -2.667852   -0.257913   -1.072840
      9          1           0       -2.897191   -1.819097   -0.345425
     10          1           0       -0.602565   -1.578956   -1.245196
     11          6           0       -2.371478   -0.890837   -0.262612
     12          6           0       -0.867872   -1.157299   -0.298244
     13          8           0       -0.367488   -1.945660    0.784808
 ---------------------------------------------------------------------
                    Distance matrix (angstroms):
                    1          2          3          4          5
     1  C    0.000000
     2  O    2.203291   0.000000
     3  H    2.686800   0.960000   0.000000
     4  H    2.115661   1.044733   1.613360   0.000000
     5  H    1.070000   2.595522   2.704706   2.539266   0.000000
     6  H    1.070000   2.220024   2.788303   2.542344   1.830431
     7  H    2.766076   3.097032   4.038351   2.780562   3.805685
     8  H    2.887029   4.232846   5.079279   3.901948   3.829132
     9  H    3.438336   4.266003   5.100830   3.588054   4.301422
    10  H    2.099214   3.840345   4.360689   3.198882   2.454348
    11  C    2.546853   3.535275   4.394857   3.040236   3.508781
    12  C    1.476987   2.889674   3.532184   2.274658   2.184781
    13  O    2.129921   2.435720   2.906283   1.469067   2.500377
                    6          7          8          9         10
     6  H    0.000000
     7  H    2.726367   0.000000
     8  H    2.934632   1.742669   0.000000
     9  H    3.826457   1.733596   1.737534   0.000000
    10  H    2.970292   3.025516   2.457696   2.476402   0.000000
    11  C    2.796494   1.070000   1.070000   1.070000   2.137295
    12  C    2.263315   2.152056   2.156113   2.135027   1.070000
    13  O    2.975111   2.744155   3.404559   2.773598   2.076211
                   11         12         13
    11  C    0.000000
    12  C    1.527449   0.000000
    13  O    2.495138   1.430000   0.000000
 Symmetry turned off by external request.
 Stoichiometry    C3H8O2
 Framework group  C1[X(C3H8O2)]
 Deg. of freedom    33
 Full point group                 C1      NOp   1
 Rotational constants (GHZ):      7.0600530      3.2958543      3.1474056
 Standard basis: 6-31++G(d,p) (6D, 7F)
 The following finite field(s) will be applied:
 An electric field of              0.0000  0.0000  0.0050
 Integral buffers will be    131072 words long.
 Raffenetti 2 integral format.
 Two-electron integral symmetry is turned off.
   143 basis functions,   224 primitive gaussians,   143 cartesian basis functions
    21 alpha electrons       21 beta electrons
       nuclear repulsion energy       189.7847448441 Hartrees.
 NAtoms=   13 NActive=   13 NUniq=   13 SFac= 1.00D+00 NAtFMM=   50 NAOKFM=F Big=F
 One-electron integrals computed using PRISM.
 PrsmSu:  requested number of processors reduced to:  10 ShMem   1 Linda.
 NBasis=   143 RedAO= T  NBF=   143
 NBsUse=   143 1.00D-06 NBFU=   143
 The nuclear repulsion energy is now       190.0021919291 hartrees.
 Harris functional with IExCor=  402 diagonalized for initial guess.
 ExpMin= 3.60D-02 ExpMax= 5.48D+03 ExpMxC= 8.25D+02 IAcc=3 IRadAn=         0 AccDes= 0.00D+00
 HarFok:  IExCor=  402 AccDes= 0.00D+00 IRadAn=         0 IDoV= 1
 ScaDFX=  1.000000  1.000000  1.000000  1.000000
 FoFCou: FMM=F IPFlag=           0 FMFlag=      100000 FMFlg1=           0
         NFxFlg=           0 DoJE=T BraDBF=F KetDBF=T FulRan=T
         Omega=  0.000000  0.000000  1.000000  0.000000  0.000000 ICntrl=     500 IOpCl=  0
         NMat0=    1 NMatS0=    1 NMatT0=    0 NMatD0=    1 NMtDS0=    0 NMtDT0=    0
         I1Cent=           4 NGrid=           0.
 Symmetry not used in FoFCou.
 Requested convergence on RMS density matrix=1.00D-08 within 128 cycles.
 Requested convergence on MAX density matrix=1.00D-06.
 Requested convergence on             energy=1.00D-06.
 No special actions if energy rises.
 EnCoef did     3 forward-backward iterations
 EnCoef did     2 forward-backward iterations
 SCF Done:  E(RB3LYP) =  -269.489918150     A.U. after   15 cycles
             Convg  =    0.7214D-08             -V/T =  2.0089
 Range of M.O.s used for correlation:     1   143
 NBasis=   143 NAE=    21 NBE=    21 NFC=     0 NFV=     0
 NROrb=    143 NOA=    21 NOB=    21 NVA=   122 NVB=   122

 **** Warning!!: The largest alpha MO coefficient is  0.34495794D+02

 PrsmSu:  requested number of processors reduced to:  10 ShMem   1 Linda.
 PrsmSu:  requested number of processors reduced to:  17 ShMem   1 Linda.
 Symmetrizing basis deriv contribution to polar:
 IMax=3 JMax=2 DiffMx= 0.00D+00
 G2DrvN: will do     3 centers at a time, making    5 passes doing MaxLOS=2.
 Estimated number of processors is:   15
 Calling FoFCou, ICntrl=  3107 FMM=F I1Cent=   0 AccDes= 0.00D+00.
 CoulSu:  requested number of processors reduced to:  15 ShMem   1 Linda.
 Calling FoFCou, ICntrl=  3107 FMM=F I1Cent=   0 AccDes= 0.00D+00.
 CoulSu:  requested number of processors reduced to:  15 ShMem   1 Linda.
 Calling FoFCou, ICntrl=  3107 FMM=F I1Cent=   0 AccDes= 0.00D+00.
 CoulSu:  requested number of processors reduced to:  15 ShMem   1 Linda.
 Calling FoFCou, ICntrl=  3107 FMM=F I1Cent=   0 AccDes= 0.00D+00.
 CoulSu:  requested number of processors reduced to:  15 ShMem   1 Linda.
 Calling FoFCou, ICntrl=  3107 FMM=F I1Cent=   0 AccDes= 0.00D+00.
 CoulSu:  requested number of processors reduced to:  15 ShMem   1 Linda.
 FoFDir/FoFCou used for L=0 through L=2.
 End of G2Drv Frequency-dependent properties file   721 does not exist.
 End of G2Drv Frequency-dependent properties file   722 does not exist.
          IDoAtm=1111111111111
          Differentiating once with respect to nuclear coordinates.
 PrRfSu:  requested number of processors reduced to:  16 ShMem   1 Linda.
 CalDSu:  requested number of processors reduced to:  22 ShMem   1 Linda.
 PrRfSu:  requested number of processors reduced to:  16 ShMem   1 Linda.
 CalDSu:  requested number of processors reduced to:  22 ShMem   1 Linda.
          There are    42 degrees of freedom in the 1st order CPHF.  IDoFFX=5.
     36 vectors produced by pass  0 Test12= 6.10D-11 2.38D-07 XBig12= 1.38D-01 2.73D-01.
 AX will form    36 AO Fock derivatives at one time.
 PrRfSu:  requested number of processors reduced to:  15 ShMem   1 Linda.
 CalDSu:  requested number of processors reduced to:  19 ShMem   1 Linda.
     36 vectors produced by pass  1 Test12= 6.10D-11 2.38D-07 XBig12= 7.11D-02 7.94D-02.
 PrRfSu:  requested number of processors reduced to:  15 ShMem   1 Linda.
 CalDSu:  requested number of processors reduced to:  19 ShMem   1 Linda.
     36 vectors produced by pass  2 Test12= 6.10D-11 2.38D-07 XBig12= 2.45D-04 2.28D-03.
 PrRfSu:  requested number of processors reduced to:  15 ShMem   1 Linda.
 CalDSu:  requested number of processors reduced to:  19 ShMem   1 Linda.
     36 vectors produced by pass  3 Test12= 6.10D-11 2.38D-07 XBig12= 7.98D-07 1.57D-04.
 PrRfSu:  requested number of processors reduced to:  15 ShMem   1 Linda.
 CalDSu:  requested number of processors reduced to:  19 ShMem   1 Linda.
     15 vectors produced by pass  4 Test12= 6.10D-11 2.38D-07 XBig12= 1.58D-09 6.00D-06.
 PrRfSu:  requested number of processors reduced to:  17 ShMem   1 Linda.
 CalDSu:  requested number of processors reduced to:  23 ShMem   1 Linda.
 Inverted reduced A of dimension   159 with in-core refinement.
 End of Minotr Frequency-dependent properties file   721 does not exist.
 End of Minotr Frequency-dependent properties file   722 does not exist.

 **********************************************************************

            Population analysis using the SCF density.

 **********************************************************************

 Alpha  occ. eigenvalues --  -19.17826 -19.11910 -10.29422 -10.24898 -10.17759
 Alpha  occ. eigenvalues --   -1.02968  -0.96261  -0.77400  -0.71799  -0.60140
 Alpha  occ. eigenvalues --   -0.54563  -0.50286  -0.47736  -0.44272  -0.41594
 Alpha  occ. eigenvalues --   -0.39260  -0.38193  -0.36437  -0.34599  -0.25159
 Alpha  occ. eigenvalues --   -0.24990
 Alpha virt. eigenvalues --   -0.11812  -0.03070   0.00435   0.01351   0.02106
 Alpha virt. eigenvalues --    0.03919   0.04073   0.05033   0.05817   0.07173
 Alpha virt. eigenvalues --    0.09415   0.09762   0.11078   0.12407   0.12626
 Alpha virt. eigenvalues --    0.13965   0.14194   0.14834   0.15980   0.16457
 Alpha virt. eigenvalues --    0.17433   0.17554   0.19543   0.19800   0.20251
 Alpha virt. eigenvalues --    0.22083   0.23694   0.24370   0.25719   0.26493
 Alpha virt. eigenvalues --    0.27503   0.29893   0.30853   0.32879   0.33493
 Alpha virt. eigenvalues --    0.36489   0.37530   0.38829   0.40881   0.44558
 Alpha virt. eigenvalues --    0.63933   0.65518   0.69939   0.71787   0.75064
 Alpha virt. eigenvalues --    0.75810   0.77177   0.78575   0.86730   0.92816
 Alpha virt. eigenvalues --    0.95704   0.97225   0.98867   0.99763   1.04483
 Alpha virt. eigenvalues --    1.06400   1.12526   1.14994   1.15567   1.17565
 Alpha virt. eigenvalues --    1.19751   1.21677   1.28802   1.32342   1.34850
 Alpha virt. eigenvalues --    1.41488   1.43113   1.46711   1.51820   1.54505
 Alpha virt. eigenvalues --    1.60268   1.63146   1.68152   1.72650   1.77571
 Alpha virt. eigenvalues --    1.78406   1.81898   1.83607   1.87565   1.90694
 Alpha virt. eigenvalues --    2.00002   2.03406   2.04691   2.09477   2.13327
 Alpha virt. eigenvalues --    2.14557   2.17513   2.23307   2.26581   2.30945
 Alpha virt. eigenvalues --    2.34760   2.35979   2.39312   2.41104   2.45819
 Alpha virt. eigenvalues --    2.53817   2.55488   2.60262   2.65784   2.67268
 Alpha virt. eigenvalues --    2.73859   2.76295   2.81769   2.85167   2.87539
 Alpha virt. eigenvalues --    2.95482   3.00977   3.06197   3.08616   3.31874
 Alpha virt. eigenvalues --    3.36231   3.40690   3.42351   3.49128   3.52158
 Alpha virt. eigenvalues --    3.54775   3.71929   4.19764   4.33615   4.41620
 Alpha virt. eigenvalues --    4.50586   4.68066
          Condensed to atoms (all electrons):
              1          2          3          4          5          6
     1  C    5.688055   0.004795   0.005699   0.028421   0.360823   0.401291
     2  O    0.004795   8.493637   0.234770   0.127247  -0.003460  -0.057469
     3  H    0.005699   0.234770   0.417843  -0.007820  -0.006942   0.003925
     4  H    0.028421   0.127247  -0.007820   0.347827  -0.005572   0.008801
     5  H    0.360823  -0.003460  -0.006942  -0.005572   0.569042  -0.060323
     6  H    0.401291  -0.057469   0.003925   0.008801  -0.060323   0.538921
     7  H   -0.021525   0.006416  -0.000268   0.002956  -0.001992   0.004717
     8  H    0.007348  -0.000139  -0.000002   0.000909   0.000774  -0.003668
     9  H    0.000510   0.001428  -0.000156  -0.001754  -0.002713   0.001420
    10  H   -0.071583  -0.008292   0.001675   0.011334  -0.042276   0.017995
    11  C    0.339755  -0.045377   0.005865   0.016043   0.024006   0.018285
    12  C   -0.569270   0.107375  -0.016693  -0.103233  -0.038596  -0.092569
    13  O    0.007050  -0.161045   0.011282   0.137487   0.001805   0.017517
              7          8          9         10         11         12
     1  C   -0.021525   0.007348   0.000510  -0.071583   0.339755  -0.569270
     2  O    0.006416  -0.000139   0.001428  -0.008292  -0.045377   0.107375
     3  H   -0.000268  -0.000002  -0.000156   0.001675   0.005865  -0.016693
     4  H    0.002956   0.000909  -0.001754   0.011334   0.016043  -0.103233
     5  H   -0.001992   0.000774  -0.002713  -0.042276   0.024006  -0.038596
     6  H    0.004717  -0.003668   0.001420   0.017995   0.018285  -0.092569
     7  H    0.534597  -0.037765  -0.026124   0.010599   0.406416  -0.044071
     8  H   -0.037765   0.532513  -0.013002  -0.007322   0.408636  -0.051698
     9  H   -0.026124  -0.013002   0.500187  -0.005333   0.398395  -0.022644
    10  H    0.010599  -0.007322  -0.005333   0.671726  -0.068521   0.367567
    11  C    0.406416   0.408636   0.398395  -0.068521   5.776048  -0.612094
    12  C   -0.044071  -0.051698  -0.022644   0.367567  -0.612094   6.670436
    13  O    0.002864   0.007838  -0.004588  -0.040553  -0.098754   0.218376
             13
     1  C    0.007050
     2  O   -0.161045
     3  H    0.011282
     4  H    0.137487
     5  H    0.001805
     6  H    0.017517
     7  H    0.002864
     8  H    0.007838
     9  H   -0.004588
    10  H   -0.040553
    11  C   -0.098754
    12  C    0.218376
    13  O    8.488752
 Mulliken atomic charges:
              1
     1  C   -0.181370
     2  O   -0.699886
     3  H    0.350821
     4  H    0.437354
     5  H    0.205424
     6  H    0.201157
     7  H    0.163178
     8  H    0.155578
     9  H    0.174375
    10  H    0.162984
    11  C   -0.568703
    12  C    0.187115
    13  O   -0.588028
 Sum of Mulliken atomic charges =   0.00000
 Mulliken charges with hydrogens summed into heavy atoms:
              1
     1  C    0.225211
     2  O    0.088289
    11  C   -0.075571
    12  C    0.350099
    13  O   -0.588028
 Sum of Mulliken charges with hydrogens summed into heavy atoms =   0.00000
 APT atomic charges:
              1
     1  C   -0.365158
     2  O   -0.892185
     3  H    0.603039
     4  H    0.355055
     5  H    0.397512
     6  H    0.374122
     7  H    0.321594
     8  H    0.361574
     9  H    0.617479
    10  H    0.416849
    11  C   -1.287967
    12  C   -0.276758
    13  O   -0.625158
 Sum of APT charges=   0.00000
 APT Atomic charges with hydrogens summed into heavy atoms:
              1
     1  C    0.406475
     2  O    0.065910
     3  H    0.000000
     4  H    0.000000
     5  H    0.000000
     6  H    0.000000
     7  H    0.000000
     8  H    0.000000
     9  H    0.000000
    10  H    0.000000
    11  C    0.012680
    12  C    0.140091
    13  O   -0.625158
 Sum of APT charges=   0.00000
 Electronic spatial extent (au):  <R**2>=            696.0275
 Charge=              0.0000 electrons
 Dipole moment (field-independent basis, Debye):
    X=              1.0997    Y=              2.5995    Z=             -2.8173  Tot=              3.9880
 Quadrupole moment (field-independent basis, Debye-Ang):
   XX=            -29.0778   YY=            -40.0291   ZZ=            -34.5065
   XY=              0.4906   XZ=              4.8609   YZ=              2.5220
 Traceless Quadrupole moment (field-independent basis, Debye-Ang):
   XX=              5.4600   YY=             -5.4913   ZZ=              0.0313
   XY=              0.4906   XZ=              4.8609   YZ=              2.5220
 Octapole moment (field-independent basis, Debye-Ang**2):
  XXX=             73.3581  YYY=             94.5678  ZZZ=            -53.3926  XYY=             23.8217
  XXY=             22.8939  XXZ=            -14.1670  XZZ=             35.3765  YZZ=             21.8357
  YYZ=            -25.2692  XYZ=             -1.6857
 Hexadecapole moment (field-independent basis, Debye-Ang**3):
 XXXX=           -342.3667 YYYY=           -313.0296 ZZZZ=           -293.4518 XXXY=            -71.1838
 XXXZ=            -10.5138 YYYX=            -77.2038 YYYZ=             36.3730 ZZZX=             14.0937
 ZZZY=              7.2730 XXYY=            -99.0587 XXZZ=            -95.0702 YYZZ=            -94.3677
 XXYZ=              8.0224 YYXZ=             -0.3024 ZZXY=            -26.1328
 N-N= 1.900021919291D+02 E-N=-1.010008265629D+03  KE= 2.671167300095D+02
  Exact polarizability:   0.000   0.000   0.000   0.000   0.000   0.000
 Approx polarizability:  63.972  11.198 101.521   3.493  -4.874  84.854
 PrsmSu:  requested number of processors reduced to:  10 ShMem   1 Linda.
 PrsmSu:  requested number of processors reduced to:  10 ShMem   1 Linda.
 Calling FoFJK, ICntrl=    100147 FMM=F ISym2X=0 I1Cent= 0 IOpClX= 0 NMat=1 NMatS=1 NMatT=0.
 CoulSu:  requested number of processors reduced to:  10 ShMem   1 Linda.
 CalDSu:  requested number of processors reduced to:  23 ShMem   1 Linda.
 -------------------------------------------------------------------
 Center     Atomic                   Forces (Hartrees/Bohr)
 Number     Number              X              Y              Z
 -------------------------------------------------------------------
      1        6          -0.007270168   -0.010640288   -0.001316407
      2        8          -0.006667861    0.003926054    0.002867734
      3        1           0.007538016   -0.000013772    0.001328134
      4        1          -0.000776182   -0.004471136   -0.003588767
      5        1           0.010391309   -0.001321251   -0.001947593
      6        1          -0.003743266    0.009039625    0.001857874
      7        1          -0.004250301    0.007666878    0.015207726
      8        1          -0.004561883    0.010657249   -0.014257531
      9        1          -0.007666237   -0.014445251   -0.001732318
     10        1           0.006540330   -0.010267270   -0.017837549
     11        6           0.016872100   -0.004298182    0.002001382
     12        6          -0.001990837    0.004448289    0.026076558
     13        8          -0.004415021    0.009719055   -0.008659244
 -------------------------------------------------------------------
 Cartesian Forces:  Max     0.026076558 RMS     0.008948674
 -----------------------------------------------------------------------------------------------
                       Internal Coordinate Forces (Hartree/Bohr or radian)
  Cent   Atom   N1       Length/X         N2         Alpha/Y        N3         Beta/Z          J
 -----------------------------------------------------------------------------------------------
      1  C 
      2  O        1   0.000607(     1)
      3  H        2   0.007539(     2)      1  -0.002399(    13)
      4  H        2   0.005443(     3)      1  -0.003856(    14)      3   0.000318(    24)     0
      5  H        1   0.010650(     4)      2   0.000578(    15)      3   0.000280(    25)     0
      6  H        1   0.009941(     5)      2   0.000830(    16)      3  -0.000865(    26)     0
      7  H        1   0.006520(     6)      2  -0.073476(    17)      3   0.041862(    27)     0
      8  H        1   0.008562(     7)      2   0.065088(    18)      3   0.055952(    28)     0
      9  H        1   0.014276(     8)      2   0.001947(    19)      3  -0.052733(    29)     0
     10  H        1   0.016426(     9)      2   0.039883(    20)      3  -0.031206(    30)     0
     11  C        1  -0.014413(    10)      2  -0.002493(    21)      3  -0.013034(    31)     0
     12  C        1  -0.010854(    11)      2  -0.048475(    22)     11   0.034632(    32)     0
     13  O       12  -0.013461(    12)      1  -0.006189(    23)      2   0.004245(    33)     0
 -----------------------------------------------------------------------------------------------
 Internal  Forces:  Max     0.073475905 RMS     0.027560710

 GradGradGradGradGradGradGradGradGradGradGradGradGradGradGradGradGradGrad
 Berny optimization.
 Search for a saddle point.
 Step number   1 out of a maximum of   42
 All quantities printed in internal units (Hartrees-Bohrs-Radians)
 Swaping is turned off.
 Second derivative matrix not updated -- analytic derivatives used.
 ITU=  0
     Eigenvalues ---   -0.10749  -0.04813   0.00296   0.01135   0.01331
     Eigenvalues ---    0.03130   0.06028   0.06321   0.07532   0.09354
     Eigenvalues ---    0.13109   0.14897   0.16618   0.23723   0.27564
     Eigenvalues ---    0.29954   0.33321   0.39565   0.40345   0.40556
     Eigenvalues ---    0.45682   0.55804   0.57796   0.79332   1.21903
     Eigenvalues ---    2.50212   3.22130   3.79590   6.39662   7.51029
     Eigenvalues ---   18.76631  22.04786
 Eigenvectors required to have negative eigenvalues:
                          D4        D5        A7        A6        A11
   1                    0.45720  -0.40567  -0.31962   0.31195   0.27035
                          A10       A5        A8        B6        B2
   1                   -0.25934   0.23765  -0.22359   0.20390   0.20055
 RFO step:  Lambda0=6.091660349D-05 Lambda=-4.83103914D-02.
 Linear search not attempted -- option 19 set.
 Maximum step size (   0.300) exceeded in Quadratic search.
    -- Step size scaled by   0.397
 Variable       Old X    -DE/DX   Delta X   Delta X   Delta X     New X
                                 (Linear)    (Quad)   (Total)
    B1        1.81414   0.00754   0.00000   0.00618   0.00618   1.82032
    B2        1.97426   0.00544   0.00000   0.10041   0.10041   2.07467
    B3        2.02201   0.01065   0.00000   0.01138   0.01138   2.03339
    B4        2.02201   0.00994   0.00000   0.01411   0.01411   2.03612
    B5        5.22713   0.00652   0.00000   0.08927   0.08927   5.31639
    B6        5.45569   0.00856   0.00000  -0.11129  -0.11129   5.34441
    B7        6.49751   0.01428   0.00000   0.03160   0.03160   6.52911
    B8        3.96694   0.01643   0.00000  -0.03845  -0.03845   3.92849
    B9        4.81286  -0.01441   0.00000  -0.00361  -0.00361   4.80924
   B10        2.79110  -0.01085   0.00000   0.01540   0.01540   2.80650
   B11        2.70231  -0.01346   0.00000  -0.01783  -0.01783   2.68448
    A1        1.91884  -0.00240   0.00000  -0.04949  -0.04949   1.86935
    A2        1.24581  -0.00386   0.00000  -0.02118  -0.02118   1.22463
    A3        1.72782   0.00058   0.00000  -0.02462  -0.02462   1.70320
    A4        1.34168   0.00083   0.00000   0.10102   0.10102   1.44269
    A5        1.32938  -0.07348   0.00000  -0.07311  -0.07311   1.25627
    A6        1.95154   0.06509   0.00000  -0.07248  -0.07248   1.87906
    A7        1.67143   0.00195   0.00000   0.00897   0.00897   1.68040
    A8        2.20579   0.03988   0.00000  -0.05901  -0.05901   2.14678
    A9        1.67409  -0.00249   0.00000  -0.04573  -0.04573   1.62837
   A10        1.77412  -0.04847   0.00000  -0.08557  -0.08557   1.68856
   A11        1.64429  -0.00619   0.00000   0.10725   0.10725   1.75154
    D1       -1.78018   0.00032   0.00000  -0.00412  -0.00412  -1.78430
    D2        0.11307   0.00028   0.00000   0.02155   0.02155   0.13462
    D3       -1.91851  -0.00086   0.00000   0.01840   0.01840  -1.90011
    D4        2.98105   0.04186   0.00000  -0.06033  -0.06033   2.92072
    D5        3.04522   0.05595   0.00000   0.04765   0.04765   3.09286
    D6        2.58092  -0.05273   0.00000   0.00185   0.00185   2.58277
    D7        1.93536  -0.03121   0.00000  -0.00832  -0.00832   1.92704
    D8        2.78226  -0.01303   0.00000  -0.00378  -0.00378   2.77847
    D9       -0.56801   0.03463   0.00000  -0.00707  -0.00707  -0.57508
   D10       -0.65904   0.00424   0.00000   0.02237   0.02237  -0.63667
         Item               Value     Threshold  Converged?
 Maximum Force            0.073476     0.000450     NO 
 RMS     Force            0.027988     0.000300     NO 
 Maximum Displacement     0.111287     0.001800     NO 
 RMS     Displacement     0.053033     0.001200     NO 
 Predicted change in Energy=-4.577361D-03
 GradGradGradGradGradGradGradGradGradGradGradGradGradGradGradGradGradGrad

 ---------------------------------------------------------------------------------------------------
                            Z-MATRIX (ANGSTROMS AND DEGREES)
   CD    Cent   Atom    N1       Length/X        N2       Alpha/Y        N3        Beta/Z          J
 ---------------------------------------------------------------------------------------------------
      1      1  C 
      2      2  O        1   2.203291(     1)
      3      3  H        2   0.963272(     2)      1  107.106(    13)
      4      4  H        2   1.097866(     3)      1   70.166(    14)      3 -102.233(    24)      0
      5      5  H        1   1.076022(     4)      2   97.586(    15)      3    7.713(    25)      0
      6      6  H        1   1.077466(     5)      2   82.660(    16)      3 -108.868(    26)      0
      7      7  H        1   2.813314(     6)      2   71.979(    17)      3  167.345(    27)      0
      8      8  H        1   2.828139(     7)      2  107.662(    18)      3  177.208(    28)      0
      9      9  H        1   3.455059(     8)      2   96.280(    19)      3  147.982(    29)      0
     10     10  H        1   2.078867(     9)      2  123.001(    20)      3  110.411(    30)      0
     11     11  C        1   2.544942(    10)      2   93.299(    21)      3  159.195(    31)      0
     12     12  C        1   1.485137(    11)      2   96.747(    22)     11  -32.950(    32)      0
     13     13  O       12   1.420565(    12)      1  100.356(    23)      2  -36.479(    33)      0
 ---------------------------------------------------------------------------------------------------
                         Z-Matrix orientation:                         
 ---------------------------------------------------------------------
 Center     Atomic      Atomic             Coordinates (Angstroms)
 Number     Number       Type             X           Y           Z
 ---------------------------------------------------------------------
      1          6           0        0.000000    0.000000    0.000000
      2          8           0        0.000000    0.000000    2.203291
      3          1           0        0.920659    0.000000    2.486629
      4          1           0       -0.218819   -1.009294    1.830792
      5          1           0        1.056955   -0.143149   -0.142053
      6          1           0       -0.345587    1.011215    0.137649
      7          1           0       -2.610308   -0.586117    0.870343
      8          1           0       -2.691628   -0.131266   -0.858065
      9          1           0       -2.911893   -1.820844   -0.377937
     10          1           0       -0.608040   -1.633996   -1.132269
     11          6           0       -2.375054   -0.902446   -0.146431
     12          6           0       -0.871989   -1.189463   -0.174484
     13          8           0       -0.429939   -1.991657    0.911371
 ---------------------------------------------------------------------
                    Distance matrix (angstroms):
                    1          2          3          4          5
     1  C    0.000000
     2  O    2.203291   0.000000
     3  H    2.651591   0.963272   0.000000
     4  H    2.101989   1.097866   1.657469   0.000000
     5  H    1.076022   2.576486   2.636102   2.503981   0.000000
     6  H    1.077466   2.325696   2.853706   2.639178   1.837909
     7  H    2.813314   2.988978   3.927294   2.611659   3.830141
     8  H    2.828139   4.078479   4.924715   3.757083   3.816371
     9  H    3.455059   4.296199   5.119537   3.576276   4.315328
    10  H    2.078867   3.763723   4.254796   3.053110   2.444455
    11  C    2.544942   3.460705   4.313831   2.927487   3.515001
    12  C    1.485137   2.798035   3.421978   2.116655   2.194687
    13  O    2.232071   2.412592   2.876152   1.361964   2.595677
                    6          7          8          9         10
     6  H    0.000000
     7  H    2.866578   0.000000
     8  H    2.792959   1.789104   0.000000
     9  H    3.856464   1.781489   1.770229   0.000000
    10  H    2.945966   3.019533   2.583549   2.431393   0.000000
    11  C    2.803843   1.090521   1.096065   1.088690   2.151600
    12  C    2.284187   2.115996   2.213176   2.145051   1.088408
    13  O    3.102096   2.594462   3.421578   2.802069   2.082332
                   11         12         13
    11  C    0.000000
    12  C    1.530480   0.000000
    13  O    2.467549   1.420565   0.000000
 Symmetry turned off by external request.
 Stoichiometry    C3H8O2
 Framework group  C1[X(C3H8O2)]
 Deg. of freedom    33
 Full point group                 C1      NOp   1
 Rotational constants (GHZ):      6.7973315      3.4247356      3.2083031
 Standard basis: 6-31++G(d,p) (6D, 7F)
 The following finite field(s) will be applied:
 An electric field of              0.0000  0.0000  0.0050
 Integral buffers will be    131072 words long.
 Raffenetti 2 integral format.
 Two-electron integral symmetry is turned off.
   143 basis functions,   224 primitive gaussians,   143 cartesian basis functions
    21 alpha electrons       21 beta electrons
       nuclear repulsion energy       189.8586605197 Hartrees.
 NAtoms=   13 NActive=   13 NUniq=   13 SFac= 1.00D+00 NAtFMM=   50 NAOKFM=F Big=F
 One-electron integrals computed using PRISM.
 PrsmSu:  requested number of processors reduced to:  10 ShMem   1 Linda.
 NBasis=   143 RedAO= T  NBF=   143
 NBsUse=   143 1.00D-06 NBFU=   143
 The nuclear repulsion energy is now       190.1025002935 hartrees.
 Initial guess read from the read-write file.
 B after Tr=     0.000000    0.000000    0.000000
         Rot=    1.000000    0.000000    0.000000    0.000000 Ang=   0.00 deg.
 Harris functional with IExCor=  402 diagonalized for initial guess.
 ExpMin= 3.60D-02 ExpMax= 5.48D+03 ExpMxC= 8.25D+02 IAcc=3 IRadAn=         0 AccDes= 0.00D+00
 HarFok:  IExCor=  402 AccDes= 0.00D+00 IRadAn=         0 IDoV= 1
 ScaDFX=  1.000000  1.000000  1.000000  1.000000
 FoFCou: FMM=F IPFlag=           0 FMFlag=      100000 FMFlg1=           0
         NFxFlg=           0 DoJE=T BraDBF=F KetDBF=T FulRan=T
         Omega=  0.000000  0.000000  1.000000  0.000000  0.000000 ICntrl=     500 IOpCl=  0
         NMat0=    1 NMatS0=    1 NMatT0=    0 NMatD0=    1 NMtDS0=    0 NMtDT0=    0
         I1Cent=           4 NGrid=           0.
 Symmetry not used in FoFCou.
 Requested convergence on RMS density matrix=1.00D-08 within 128 cycles.
 Requested convergence on MAX density matrix=1.00D-06.
 Requested convergence on             energy=1.00D-06.
 No special actions if energy rises.
 SCF Done:  E(RB3LYP) =  -269.493409273     A.U. after   14 cycles
             Convg  =    0.4387D-08             -V/T =  2.0096
 PrsmSu:  requested number of processors reduced to:  10 ShMem   1 Linda.
 PrsmSu:  requested number of processors reduced to:  23 ShMem   1 Linda.
 Calling FoFJK, ICntrl=      2127 FMM=F ISym2X=0 I1Cent= 0 IOpClX= 0 NMat=1 NMatS=1 NMatT=0.
 CoulSu:  requested number of processors reduced to:  16 ShMem   1 Linda.
 -------------------------------------------------------------------
 Center     Atomic                   Forces (Hartrees/Bohr)
 Number     Number              X              Y              Z
 -------------------------------------------------------------------
      1        6          -0.003163261   -0.002951948    0.017553785
      2        8          -0.003163219    0.007063934   -0.014277082
      3        1           0.005079899    0.000600630   -0.000319372
      4        1          -0.003040842   -0.014273208   -0.004414476
      5        1           0.007060332   -0.000950223   -0.000854753
      6        1          -0.002883661    0.005974265   -0.002697583
      7        1          -0.006117620    0.001352284    0.001168542
      8        1           0.002612218    0.000293651   -0.001017085
      9        1          -0.002486327   -0.002018892    0.001410358
     10        1           0.004579127   -0.006089165   -0.008954189
     11        6           0.004675894   -0.000380307    0.003331337
     12        6          -0.000342621    0.001625866    0.017211967
     13        8          -0.002809919    0.009753112   -0.008141449
 -------------------------------------------------------------------
 Cartesian Forces:  Max     0.017553785 RMS     0.006509450
 -----------------------------------------------------------------------------------------------
                       Internal Coordinate Forces (Hartree/Bohr or radian)
  Cent   Atom   N1       Length/X         N2         Alpha/Y        N3         Beta/Z          J
 -----------------------------------------------------------------------------------------------
      1  C 
      2  O        1  -0.019011(     1)
      3  H        2   0.004761(     2)      1  -0.003276(    13)
      4  H        2   0.015226(     3)      1   0.001657(    14)      3   0.000102(    24)     0
      5  H        1   0.007174(     4)      2  -0.000190(    15)      3  -0.000012(    25)     0
      6  H        1   0.006187(     5)      2   0.007161(    16)      3  -0.001609(    26)     0
      7  H        1   0.005756(     6)      2   0.003422(    17)      3   0.013446(    27)     0
      8  H        1  -0.002191(     7)      2   0.009433(    18)      3   0.000846(    28)     0
      9  H        1   0.003005(     8)      2  -0.011423(    19)      3  -0.002554(    29)     0
     10  H        1   0.008324(     9)      2   0.020707(    20)      3  -0.021136(    30)     0
     11  C        1  -0.004421(    10)      2  -0.014823(    21)      3   0.012268(    31)     0
     12  C        1  -0.008328(    11)      2  -0.029668(    22)     11   0.021949(    32)     0
     13  O       12  -0.012605(    12)      1  -0.008021(    23)      2   0.003218(    33)     0
 -----------------------------------------------------------------------------------------------
 Internal  Forces:  Max     0.029667600 RMS     0.011333329

 GradGradGradGradGradGradGradGradGradGradGradGradGradGradGradGradGradGrad
 Berny optimization.
 Search for a saddle point.
 Step number   2 out of a maximum of   42
 All quantities printed in internal units (Hartrees-Bohrs-Radians)
 Swaping is turned off.
 Update second derivatives using D2CorN and points    1    2
 ITU=  0  0
     Eigenvalues ---   -0.11296  -0.01093   0.00310   0.01135   0.01330
     Eigenvalues ---    0.03157   0.06026   0.06507   0.07537   0.09336
     Eigenvalues ---    0.13123   0.14916   0.16631   0.23786   0.27621
     Eigenvalues ---    0.29954   0.33343   0.39559   0.40345   0.40529
     Eigenvalues ---    0.45705   0.55799   0.57774   0.79346   1.21896
     Eigenvalues ---    2.50210   3.22130   3.79595   6.39633   7.51637
     Eigenvalues ---   18.76709  22.04790
 Eigenvectors required to have negative eigenvalues:
                          D4        D5        A11       A10       A7
   1                    0.39621  -0.35991   0.34971  -0.32537  -0.30946
                          B2        A4        A8        A6        A5
   1                    0.28345   0.28225  -0.26943   0.23825   0.17318
 RFO step:  Lambda0=2.985885758D-03 Lambda=-1.25282468D-02.
 Linear search not attempted -- option 19 set.
 Maximum step size (   0.300) exceeded in Quadratic search.
    -- Step size scaled by   0.385
 Variable       Old X    -DE/DX   Delta X   Delta X   Delta X     New X
                                 (Linear)    (Quad)   (Total)
    B1        1.82032   0.00476   0.00000   0.00385   0.00385   1.82417
    B2        2.07467   0.01523   0.00000   0.07579   0.07579   2.15046
    B3        2.03339   0.00717   0.00000   0.00659   0.00659   2.03997
    B4        2.03612   0.00619   0.00000   0.00732   0.00732   2.04344
    B5        5.31639   0.00576   0.00000   0.14074   0.14074   5.45713
    B6        5.34441  -0.00219   0.00000  -0.15965  -0.15965   5.18476
    B7        6.52911   0.00301   0.00000   0.02346   0.02346   6.55258
    B8        3.92849   0.00832   0.00000  -0.01140  -0.01140   3.91709
    B9        4.80924  -0.00442   0.00000  -0.00399  -0.00399   4.80525
   B10        2.80650  -0.00833   0.00000  -0.00036  -0.00036   2.80614
   B11        2.68448  -0.01261   0.00000  -0.01279  -0.01279   2.67169
    A1        1.86935  -0.00328   0.00000  -0.02887  -0.02887   1.84048
    A2        1.22463   0.00166   0.00000  -0.01224  -0.01224   1.21240
    A3        1.70320  -0.00019   0.00000   0.00514   0.00514   1.70834
    A4        1.44269   0.00716   0.00000   0.04917   0.04917   1.49186
    A5        1.25627   0.00342   0.00000  -0.07784  -0.07784   1.17843
    A6        1.87906   0.00943   0.00000  -0.09290  -0.09290   1.78616
    A7        1.68040  -0.01142   0.00000   0.03012   0.03012   1.71052
    A8        2.14678   0.02071   0.00000  -0.02079  -0.02079   2.12599
    A9        1.62837  -0.01482   0.00000  -0.04435  -0.04435   1.58402
   A10        1.68856  -0.02967   0.00000  -0.03844  -0.03844   1.65012
   A11        1.75154  -0.00802   0.00000   0.02672   0.02672   1.77826
    D1       -1.78430   0.00010   0.00000   0.00391   0.00391  -1.78038
    D2        0.13462  -0.00001   0.00000   0.01317   0.01317   0.14778
    D3       -1.90011  -0.00161   0.00000   0.01174   0.01174  -1.88836
    D4        2.92072   0.01345   0.00000  -0.07830  -0.07830   2.84242
    D5        3.09286   0.00085   0.00000   0.08111   0.08111   3.17397
    D6        2.58277  -0.00255   0.00000   0.01704   0.01704   2.59981
    D7        1.92704  -0.02114   0.00000   0.02492   0.02492   1.95196
    D8        2.77847   0.01227   0.00000   0.00737   0.00737   2.78584
    D9       -0.57508   0.02195   0.00000   0.00193   0.00193  -0.57315
   D10       -0.63667   0.00322   0.00000  -0.01927  -0.01927  -0.65595
         Item               Value     Threshold  Converged?
 Maximum Force            0.029668     0.000450     NO 
 RMS     Force            0.011007     0.000300     NO 
 Maximum Displacement     0.159645     0.001800     NO 
 RMS     Displacement     0.053033     0.001200     NO 
 Predicted change in Energy=-1.629169D-03
 GradGradGradGradGradGradGradGradGradGradGradGradGradGradGradGradGradGrad

 ---------------------------------------------------------------------------------------------------
                            Z-MATRIX (ANGSTROMS AND DEGREES)
   CD    Cent   Atom    N1       Length/X        N2       Alpha/Y        N3        Beta/Z          J
 ---------------------------------------------------------------------------------------------------
      1      1  C 
      2      2  O        1   2.203291(     1)
      3      3  H        2   0.965308(     2)      1  105.452(    13)
      4      4  H        2   1.137975(     3)      1   69.465(    14)      3 -102.008(    24)      0
      5      5  H        1   1.079508(     4)      2   97.881(    15)      3    8.467(    25)      0
      6      6  H        1   1.081340(     5)      2   85.477(    16)      3 -108.195(    26)      0
      7      7  H        1   2.887791(     6)      2   67.519(    17)      3  162.859(    27)      0
      8      8  H        1   2.743658(     7)      2  102.340(    18)      3  181.855(    28)      0
      9      9  H        1   3.467474(     8)      2   98.006(    19)      3  148.958(    29)      0
     10     10  H        1   2.072836(     9)      2  121.810(    20)      3  111.839(    30)      0
     11     11  C        1   2.542830(    10)      2   90.758(    21)      3  159.617(    31)      0
     12     12  C        1   1.484948(    11)      2   94.545(    22)     11  -32.839(    32)      0
     13     13  O       12   1.413799(    12)      1  101.887(    23)      2  -37.583(    33)      0
 ---------------------------------------------------------------------------------------------------
                         Z-Matrix orientation:                         
 ---------------------------------------------------------------------
 Center     Atomic      Atomic             Coordinates (Angstroms)
 Number     Number       Type             X           Y           Z
 ---------------------------------------------------------------------
      1          6           0        0.000000    0.000000    0.000000
      2          8           0        0.000000    0.000000    2.203291
      3          1           0        0.930417    0.000000    2.460475
      4          1           0       -0.221716   -1.042347    1.804115
      5          1           0        1.057658   -0.157453   -0.148009
      6          1           0       -0.336604    1.024072    0.085267
      7          1           0       -2.549819   -0.786437    1.104209
      8          1           0       -2.678870    0.086768   -0.586331
      9          1           0       -2.941952   -1.770618   -0.482917
     10          1           0       -0.655275   -1.635075   -1.092609
     11          6           0       -2.383402   -0.885579   -0.033625
     12          6           0       -0.886265   -1.185647   -0.117667
     13          8           0       -0.436236   -1.992947    0.952179
 ---------------------------------------------------------------------
                    Distance matrix (angstroms):
                    1          2          3          4          5
     1  C    0.000000
     2  O    2.203291   0.000000
     3  H    2.630516   0.965308   0.000000
     4  H    2.095346   1.137975   1.686626   0.000000
     5  H    1.079508   2.583029   2.616327   2.496122   0.000000
     6  H    1.081340   2.376562   2.880222   2.690302   1.842386
     7  H    2.887791   2.885834   3.817065   2.444467   3.870085
     8  H    2.743658   3.868574   4.724141   3.609257   3.770068
     9  H    3.467474   4.359573   5.176281   3.627751   4.325661
    10  H    2.072836   3.737086   4.220461   2.988363   2.451484
    11  C    2.542830   3.386539   4.241012   2.841611   3.519111
    12  C    1.484948   2.752830   3.369408   2.038482   2.199304
    13  O    2.251396   2.393203   2.848603   1.294394   2.609822
                    6          7          8          9         10
     6  H    0.000000
     7  H    3.035540   0.000000
     8  H    2.610707   1.907110   0.000000
     9  H    3.862766   1.908232   1.878773   0.000000
    10  H    2.925749   3.022498   2.704811   2.370441   0.000000
    11  C    2.801836   1.154206   1.156825   1.138918   2.160929
    12  C    2.286081   2.102323   2.247693   2.168283   1.098113
    13  O    3.140679   2.438444   3.423688   2.896126   2.087392
                   11         12         13
    11  C    0.000000
    12  C    1.529224   0.000000
    13  O    2.447351   1.413799   0.000000
 Symmetry turned off by external request.
 Stoichiometry    C3H8O2
 Framework group  C1[X(C3H8O2)]
 Deg. of freedom    33
 Full point group                 C1      NOp   1
 Rotational constants (GHZ):      6.6410981      3.5125743      3.2906822
 Standard basis: 6-31++G(d,p) (6D, 7F)
 The following finite field(s) will be applied:
 An electric field of              0.0000  0.0000  0.0050
 Integral buffers will be    131072 words long.
 Raffenetti 2 integral format.
 Two-electron integral symmetry is turned off.
   143 basis functions,   224 primitive gaussians,   143 cartesian basis functions
    21 alpha electrons       21 beta electrons
       nuclear repulsion energy       190.0625249675 Hartrees.
 NAtoms=   13 NActive=   13 NUniq=   13 SFac= 1.00D+00 NAtFMM=   50 NAOKFM=F Big=F
 One-electron integrals computed using PRISM.
 PrsmSu:  requested number of processors reduced to:  10 ShMem   1 Linda.
 NBasis=   143 RedAO= T  NBF=   143
 NBsUse=   143 1.00D-06 NBFU=   143
 The nuclear repulsion energy is now       190.3221751939 hartrees.
 Initial guess read from the read-write file.
 B after Tr=     0.000000    0.000000    0.000000
         Rot=    1.000000    0.000000    0.000000    0.000000 Ang=   0.00 deg.
 Harris functional with IExCor=  402 diagonalized for initial guess.
 ExpMin= 3.60D-02 ExpMax= 5.48D+03 ExpMxC= 8.25D+02 IAcc=3 IRadAn=         0 AccDes= 0.00D+00
 HarFok:  IExCor=  402 AccDes= 0.00D+00 IRadAn=         0 IDoV= 1
 ScaDFX=  1.000000  1.000000  1.000000  1.000000
 FoFCou: FMM=F IPFlag=           0 FMFlag=      100000 FMFlg1=           0
         NFxFlg=           0 DoJE=T BraDBF=F KetDBF=T FulRan=T
         Omega=  0.000000  0.000000  1.000000  0.000000  0.000000 ICntrl=     500 IOpCl=  0
         NMat0=    1 NMatS0=    1 NMatT0=    0 NMatD0=    1 NMtDS0=    0 NMtDT0=    0
         I1Cent=           4 NGrid=           0.
 Symmetry not used in FoFCou.
 Requested convergence on RMS density matrix=1.00D-08 within 128 cycles.
 Requested convergence on MAX density matrix=1.00D-06.
 Requested convergence on             energy=1.00D-06.
 No special actions if energy rises.
 SCF Done:  E(RB3LYP) =  -269.487662976     A.U. after   14 cycles
             Convg  =    0.2487D-08             -V/T =  2.0103
 PrsmSu:  requested number of processors reduced to:  10 ShMem   1 Linda.
 PrsmSu:  requested number of processors reduced to:  23 ShMem   1 Linda.
 Calling FoFJK, ICntrl=      2127 FMM=F ISym2X=0 I1Cent= 0 IOpClX= 0 NMat=1 NMatS=1 NMatT=0.
 CoulSu:  requested number of processors reduced to:  16 ShMem   1 Linda.
 -------------------------------------------------------------------
 Center     Atomic                   Forces (Hartrees/Bohr)
 Number     Number              X              Y              Z
 -------------------------------------------------------------------
      1        6          -0.001132619    0.002393620    0.024707160
      2        8           0.000209824    0.009840905   -0.019808191
      3        1           0.003375803    0.001267613   -0.000643670
      4        1          -0.003725227   -0.019559407   -0.005269330
      5        1           0.004830385   -0.000981507   -0.000439344
      6        1          -0.002170528    0.003600648   -0.003608362
      7        1          -0.008090762   -0.001263002   -0.035022367
      8        1           0.006989604   -0.028783079    0.015302857
      9        1           0.007797477    0.022977495    0.015527687
     10        1           0.003491016   -0.004002072   -0.004221561
     11        6          -0.014381804    0.006877430    0.009287301
     12        6           0.003940115    0.000541203    0.010642452
     13        8          -0.001133283    0.007090153   -0.006454633
 -------------------------------------------------------------------
 Cartesian Forces:  Max     0.035022367 RMS     0.011813974
 -----------------------------------------------------------------------------------------------
                       Internal Coordinate Forces (Hartree/Bohr or radian)
  Cent   Atom   N1       Length/X         N2         Alpha/Y        N3         Beta/Z          J
 -----------------------------------------------------------------------------------------------
      1  C 
      2  O        1  -0.025721(     1)
      3  H        2   0.003082(     2)      1  -0.002772(    13)
      4  H        2   0.020490(     3)      1   0.004405(    14)      3   0.000857(    24)     0
      5  H        1   0.004936(     4)      2  -0.000489(    15)      3   0.000524(    25)     0
      6  H        1   0.003801(     5)      2   0.008011(    16)      3  -0.001910(    26)     0
      7  H        1  -0.005904(     6)      2   0.193508(    17)      3   0.005938(    27)     0
      8  H        1  -0.011005(     7)      2  -0.068736(    18)      3  -0.144563(    28)     0
      9  H        1  -0.020511(     8)      2  -0.083845(    19)      3   0.101653(    29)     0
     10  H        1   0.004278(     9)      2   0.009064(    20)      3  -0.015742(    30)     0
     11  C        1   0.010962(    10)      2  -0.045328(    21)      3   0.057235(    31)     0
     12  C        1  -0.008100(    11)      2  -0.015491(    22)     11   0.002191(    32)     0
     13  O       12  -0.009294(    12)      1  -0.006986(    23)      2  -0.000216(    33)     0
 -----------------------------------------------------------------------------------------------
 Internal  Forces:  Max     0.193507596 RMS     0.051790401

 GradGradGradGradGradGradGradGradGradGradGradGradGradGradGradGradGradGrad
 Berny optimization.
 Search for a saddle point.
 Step number   3 out of a maximum of   42
 All quantities printed in internal units (Hartrees-Bohrs-Radians)
 Swaping is turned off.
 Update second derivatives using D2CorN and points    1    2    3
 ITU=  0  0  0
     Eigenvalues ---   -0.21543   0.00248   0.01101   0.01312   0.02506
     Eigenvalues ---    0.03419   0.06135   0.07477   0.09274   0.12298
     Eigenvalues ---    0.14535   0.16613   0.22462   0.25899   0.29926
     Eigenvalues ---    0.32083   0.33369   0.39771   0.40327   0.40549
     Eigenvalues ---    0.45986   0.55785   0.57771   0.79862   1.22110
     Eigenvalues ---    2.50268   3.22132   3.79687   6.39696   7.55597
     Eigenvalues ---   18.77205  22.04836
 Eigenvectors required to have negative eigenvalues:
                          B2        A10       B6        A11       A4
   1                    0.37615  -0.35958  -0.32642   0.32470   0.31069
                          B5        A7        A8        D4        D5
   1                    0.28235  -0.27736  -0.26596   0.25462  -0.21933
 RFO step:  Lambda0=2.838217709D-02 Lambda=-3.83427851D-02.
 Linear search not attempted -- option 19 set.
 Maximum step size (   0.300) exceeded in Quadratic search.
    -- Step size scaled by   0.653
 Variable       Old X    -DE/DX   Delta X   Delta X   Delta X     New X
                                 (Linear)    (Quad)   (Total)
    B1        1.82417   0.00308   0.00000   0.00213   0.00213   1.82630
    B2        2.15046   0.02049   0.00000  -0.09777  -0.09777   2.05270
    B3        2.03997   0.00494   0.00000   0.00424   0.00424   2.04421
    B4        2.04344   0.00380   0.00000   0.00023   0.00023   2.04366
    B5        5.45713  -0.00590   0.00000  -0.06476  -0.06476   5.39238
    B6        5.18476  -0.01101   0.00000   0.08548   0.08548   5.27024
    B7        6.55258  -0.02051   0.00000  -0.01115  -0.01115   6.54143
    B8        3.91709   0.00428   0.00000   0.07016   0.07016   3.98725
    B9        4.80525   0.01096   0.00000  -0.00450  -0.00450   4.80075
   B10        2.80614  -0.00810   0.00000  -0.02439  -0.02439   2.78176
   B11        2.67169  -0.00929   0.00000  -0.00576  -0.00576   2.66593
    A1        1.84048  -0.00277   0.00000   0.03289   0.03289   1.87337
    A2        1.21240   0.00440   0.00000   0.00294   0.00294   1.21534
    A3        1.70834  -0.00049   0.00000   0.03214   0.03214   1.74048
    A4        1.49186   0.00801   0.00000  -0.11938  -0.11938   1.37248
    A5        1.17843   0.19351   0.00000   0.05993   0.05993   1.23837
    A6        1.78616  -0.06874   0.00000   0.06122   0.06122   1.84738
    A7        1.71052  -0.08385   0.00000   0.00405   0.00405   1.71457
    A8        2.12599   0.00906   0.00000   0.07378   0.07378   2.19978
    A9        1.58402  -0.04533   0.00000   0.04437   0.04437   1.62839
   A10        1.65012  -0.01549   0.00000   0.09882   0.09882   1.74894
   A11        1.77826  -0.00699   0.00000  -0.13257  -0.13257   1.64569
    D1       -1.78038   0.00086   0.00000   0.00868   0.00868  -1.77170
    D2        0.14778   0.00052   0.00000  -0.02612  -0.02612   0.12166
    D3       -1.88836  -0.00191   0.00000  -0.02239  -0.02239  -1.91076
    D4        2.84242   0.00594   0.00000   0.04224   0.04224   2.88467
    D5        3.17397  -0.14456   0.00000  -0.02812  -0.02812   3.14585
    D6        2.59981   0.10165   0.00000  -0.00194  -0.00194   2.59787
    D7        1.95196  -0.01574   0.00000   0.00371   0.00371   1.95567
    D8        2.78584   0.05724   0.00000   0.00228   0.00228   2.78812
    D9       -0.57315   0.00219   0.00000   0.00897   0.00897  -0.56418
   D10       -0.65595  -0.00022   0.00000  -0.02834  -0.02834  -0.68428
         Item               Value     Threshold  Converged?
 Maximum Force            0.193508     0.000450     NO 
 RMS     Force            0.052396     0.000300     NO 
 Maximum Displacement     0.132571     0.001800     NO 
 RMS     Displacement     0.053033     0.001200     NO 
 Predicted change in Energy=-4.450115D-03
 GradGradGradGradGradGradGradGradGradGradGradGradGradGradGradGradGradGrad

 ---------------------------------------------------------------------------------------------------
                            Z-MATRIX (ANGSTROMS AND DEGREES)
   CD    Cent   Atom    N1       Length/X        N2       Alpha/Y        N3        Beta/Z          J
 ---------------------------------------------------------------------------------------------------
      1      1  C 
      2      2  O        1   2.203291(     1)
      3      3  H        2   0.966436(     2)      1  107.336(    13)
      4      4  H        2   1.086240(     3)      1   69.634(    14)      3 -101.511(    24)      0
      5      5  H        1   1.081751(     4)      2   99.722(    15)      3    6.971(    25)      0
      6      6  H        1   1.081460(     5)      2   78.637(    16)      3 -109.478(    26)      0
      7      7  H        1   2.853524(     6)      2   70.953(    17)      3  165.279(    27)      0
      8      8  H        1   2.788891(     7)      2  105.847(    18)      3  180.244(    28)      0
      9      9  H        1   3.461574(     8)      2   98.238(    19)      3  148.847(    29)      0
     10     10  H        1   2.109963(     9)      2  126.038(    20)      3  112.051(    30)      0
     11     11  C        1   2.540449(    10)      2   93.300(    21)      3  159.747(    31)      0
     12     12  C        1   1.472043(    11)      2  100.207(    22)     11  -32.325(    32)      0
     13     13  O       12   1.410751(    12)      1   94.291(    23)      2  -39.206(    33)      0
 ---------------------------------------------------------------------------------------------------
                         Z-Matrix orientation:                         
 ---------------------------------------------------------------------
 Center     Atomic      Atomic             Coordinates (Angstroms)
 Number     Number       Type             X           Y           Z
 ---------------------------------------------------------------------
      1          6           0        0.000000    0.000000    0.000000
      2          8           0        0.000000    0.000000    2.203291
      3          1           0        0.922534    0.000000    2.491266
      4          1           0       -0.203213   -0.997853    1.825256
      5          1           0        1.058335   -0.129399   -0.182673
      6          1           0       -0.353545    0.999581    0.213068
      7          1           0       -2.608763   -0.685411    0.931218
      8          1           0       -2.682873    0.011420   -0.761561
      9          1           0       -2.931818   -1.772270   -0.495984
     10          1           0       -0.640564   -1.581366   -1.241332
     11          6           0       -2.379436   -0.877940   -0.146240
     12          6           0       -0.880388   -1.150560   -0.260844
     13          8           0       -0.354677   -1.926865    0.793290
 ---------------------------------------------------------------------
                    Distance matrix (angstroms):
                    1          2          3          4          5
     1  C    0.000000
     2  O    2.203291   0.000000
     3  H    2.656591   0.966436   0.000000
     4  H    2.090112   1.086240   1.645170   0.000000
     5  H    1.081751   2.613358   2.680510   2.525370   0.000000
     6  H    1.081460   2.255026   2.796019   2.571283   1.850570
     7  H    2.853524   2.982214   3.920917   2.585265   3.872661
     8  H    2.788891   3.998535   4.855921   3.722764   3.788347
     9  H    3.461574   4.361488   5.188509   3.665128   4.326489
    10  H    2.109963   3.844017   4.344684   3.152099   2.472898
    11  C    2.540449   3.457281   4.316274   2.938899   3.518510
    12  C    1.472043   2.858466   3.485459   2.198568   2.192607
    13  O    2.113744   2.413857   2.868309   1.396767   2.485958
                    6          7          8          9         10
     6  H    0.000000
     7  H    2.905331   0.000000
     8  H    2.711482   1.832094   0.000000
     9  H    3.851416   1.822782   1.820454   0.000000
    10  H    2.976399   3.065374   2.634041   2.416989   0.000000
    11  C    2.785395   1.118291   1.123234   1.107823   2.172029
    12  C    2.263905   2.150501   2.202241   2.156427   1.097482
    13  O    2.983412   2.577040   3.405144   2.885790   2.083455
                   11         12         13
    11  C    0.000000
    12  C    1.527940   0.000000
    13  O    2.466295   1.410751   0.000000
 Symmetry turned off by external request.
 Stoichiometry    C3H8O2
 Framework group  C1[X(C3H8O2)]
 Deg. of freedom    33
 Full point group                 C1      NOp   1
 Rotational constants (GHZ):      6.9470462      3.3668316      3.2515880
 Standard basis: 6-31++G(d,p) (6D, 7F)
 The following finite field(s) will be applied:
 An electric field of              0.0000  0.0000  0.0050
 Integral buffers will be    131072 words long.
 Raffenetti 2 integral format.
 Two-electron integral symmetry is turned off.
   143 basis functions,   224 primitive gaussians,   143 cartesian basis functions
    21 alpha electrons       21 beta electrons
       nuclear repulsion energy       190.2633964960 Hartrees.
 NAtoms=   13 NActive=   13 NUniq=   13 SFac= 1.00D+00 NAtFMM=   50 NAOKFM=F Big=F
 One-electron integrals computed using PRISM.
 PrsmSu:  requested number of processors reduced to:  10 ShMem   1 Linda.
 NBasis=   143 RedAO= T  NBF=   143
 NBsUse=   143 1.00D-06 NBFU=   143
 The nuclear repulsion energy is now       190.4930869782 hartrees.
 Initial guess read from the read-write file.
 B after Tr=     0.000000    0.000000    0.000000
         Rot=    1.000000    0.000000    0.000000    0.000000 Ang=   0.00 deg.
 Harris functional with IExCor=  402 diagonalized for initial guess.
 ExpMin= 3.60D-02 ExpMax= 5.48D+03 ExpMxC= 8.25D+02 IAcc=3 IRadAn=         0 AccDes= 0.00D+00
 HarFok:  IExCor=  402 AccDes= 0.00D+00 IRadAn=         0 IDoV= 1
 ScaDFX=  1.000000  1.000000  1.000000  1.000000
 FoFCou: FMM=F IPFlag=           0 FMFlag=      100000 FMFlg1=           0
         NFxFlg=           0 DoJE=T BraDBF=F KetDBF=T FulRan=T
         Omega=  0.000000  0.000000  1.000000  0.000000  0.000000 ICntrl=     500 IOpCl=  0
         NMat0=    1 NMatS0=    1 NMatT0=    0 NMatD0=    1 NMtDS0=    0 NMtDT0=    0
         I1Cent=           4 NGrid=           0.
 Symmetry not used in FoFCou.
 Requested convergence on RMS density matrix=1.00D-08 within 128 cycles.
 Requested convergence on MAX density matrix=1.00D-06.
 Requested convergence on             energy=1.00D-06.
 No special actions if energy rises.
 SCF Done:  E(RB3LYP) =  -269.490689595     A.U. after   14 cycles
             Convg  =    0.3038D-08             -V/T =  2.0097
 PrsmSu:  requested number of processors reduced to:  10 ShMem   1 Linda.
 PrsmSu:  requested number of processors reduced to:  23 ShMem   1 Linda.
 Calling FoFJK, ICntrl=      2127 FMM=F ISym2X=0 I1Cent= 0 IOpClX= 0 NMat=1 NMatS=1 NMatT=0.
 CoulSu:  requested number of processors reduced to:  16 ShMem   1 Linda.
 -------------------------------------------------------------------
 Center     Atomic                   Forces (Hartrees/Bohr)
 Number     Number              X              Y              Z
 -------------------------------------------------------------------
      1        6          -0.001118315    0.004272116    0.001614773
      2        8          -0.001402890   -0.001870089   -0.003239756
      3        1           0.001608230    0.000480007   -0.000466719
      4        1           0.000023883   -0.000538907   -0.002642946
      5        1           0.001884916   -0.000661980   -0.000367654
      6        1          -0.000122356    0.002401481    0.000378500
      7        1          -0.000893730   -0.001614503   -0.015241839
      8        1           0.003141249   -0.013812356    0.007769225
      9        1           0.001946102    0.009031277    0.004867427
     10        1           0.000932748   -0.002316669   -0.002730767
     11        6          -0.006749985    0.005587067    0.002434096
     12        6           0.002106727    0.001712815    0.007523695
     13        8          -0.001356578   -0.002670256    0.000101965
 -------------------------------------------------------------------
 Cartesian Forces:  Max     0.015241839 RMS     0.004623130
 -----------------------------------------------------------------------------------------------
                       Internal Coordinate Forces (Hartree/Bohr or radian)
  Cent   Atom   N1       Length/X         N2         Alpha/Y        N3         Beta/Z          J
 -----------------------------------------------------------------------------------------------
      1  C 
      2  O        1  -0.006349(     1)
      3  H        2   0.001396(     2)      1  -0.001689(    13)
      4  H        2   0.001410(     3)      1  -0.004712(    14)      3   0.000252(    24)     0
      5  H        1   0.001985(     4)      2   0.000067(    15)      3   0.000863(    25)     0
      6  H        1   0.002334(     5)      2   0.000170(    16)      3   0.001373(    26)     0
      7  H        1  -0.003769(     6)      2   0.079933(    17)      3  -0.006802(    27)     0
      8  H        1  -0.005200(     7)      2  -0.034784(    18)      3  -0.069959(    28)     0
      9  H        1  -0.006970(     8)      2  -0.025571(    19)      3   0.043519(    29)     0
     10  H        1   0.003060(     9)      2   0.004589(    20)      3  -0.005592(    30)     0
     11  C        1   0.004251(    10)      2  -0.012882(    21)      3   0.037740(    31)     0
     12  C        1  -0.001052(    11)      2  -0.015218(    22)     11   0.001419(    32)     0
     13  O       12   0.001040(    12)      1   0.007492(    23)      2  -0.000078(    33)     0
 -----------------------------------------------------------------------------------------------
 Internal  Forces:  Max     0.079933151 RMS     0.022843846

 GradGradGradGradGradGradGradGradGradGradGradGradGradGradGradGradGradGrad
 Berny optimization.
 Search for a saddle point.
 Step number   4 out of a maximum of   42
 All quantities printed in internal units (Hartrees-Bohrs-Radians)
 Swaping is turned off.
 Update second derivatives using D2CorN and points    1    2    3    4
 ITU=  0  0  0  0
     Eigenvalues ---   -0.19273   0.00231   0.00618   0.01208   0.01487
     Eigenvalues ---    0.03239   0.06125   0.07589   0.09498   0.12095
     Eigenvalues ---    0.14613   0.16658   0.22345   0.25669   0.29867
     Eigenvalues ---    0.31197   0.33998   0.39803   0.40274   0.40615
     Eigenvalues ---    0.46156   0.55787   0.58335   0.79909   1.22123
     Eigenvalues ---    2.50293   3.22133   3.79681   6.39465   7.56614
     Eigenvalues ---   18.77309  22.04835
 Eigenvectors required to have negative eigenvalues:
                          B6        B5        B2        A10       A7
   1                    0.46554  -0.41446  -0.36962   0.30734   0.25454
                          D4        A4        A8        A11       A9
   1                   -0.23560  -0.23537   0.22125  -0.20881   0.16899
 RFO step:  Lambda0=4.333673480D-03 Lambda=-8.26540970D-03.
 Linear search not attempted -- option 19 set.
 Maximum step size (   0.300) exceeded in Quadratic search.
    -- Step size scaled by   0.713
 Variable       Old X    -DE/DX   Delta X   Delta X   Delta X     New X
                                 (Linear)    (Quad)   (Total)
    B1        1.82630   0.00140   0.00000   0.00086   0.00086   1.82716
    B2        2.05270   0.00141   0.00000   0.02488   0.02488   2.07757
    B3        2.04421   0.00199   0.00000   0.00165   0.00165   2.04586
    B4        2.04366   0.00233   0.00000   0.00377   0.00377   2.04743
    B5        5.39238  -0.00377   0.00000  -0.12614  -0.12614   5.26623
    B6        5.27024  -0.00520   0.00000   0.18433   0.18433   5.45457
    B7        6.54143  -0.00697   0.00000  -0.01067  -0.01067   6.53076
    B8        3.98725   0.00306   0.00000  -0.02672  -0.02672   3.96053
    B9        4.80075   0.00425   0.00000   0.01274   0.01274   4.81349
   B10        2.78176  -0.00105   0.00000   0.01001   0.01001   2.79177
   B11        2.66593   0.00104   0.00000   0.00326   0.00326   2.66919
    A1        1.87337  -0.00169   0.00000  -0.01412  -0.01412   1.85925
    A2        1.21534  -0.00471   0.00000  -0.00411  -0.00411   1.21122
    A3        1.74048   0.00007   0.00000  -0.04988  -0.04988   1.69060
    A4        1.37248   0.00017   0.00000   0.05673   0.05673   1.42921
    A5        1.23837   0.07993   0.00000   0.03557   0.03557   1.27394
    A6        1.84738  -0.03478   0.00000   0.04889   0.04889   1.89627
    A7        1.71457  -0.02557   0.00000  -0.00646  -0.00646   1.70811
    A8        2.19978   0.00459   0.00000  -0.02256  -0.02256   2.17721
    A9        1.62839  -0.01288   0.00000   0.03270   0.03270   1.66109
   A10        1.74894  -0.01522   0.00000  -0.00994  -0.00994   1.73899
   A11        1.64569   0.00749   0.00000   0.05262   0.05262   1.69831
    D1       -1.77170   0.00025   0.00000  -0.01219  -0.01219  -1.78389
    D2        0.12166   0.00086   0.00000  -0.02438  -0.02438   0.09728
    D3       -1.91076   0.00137   0.00000  -0.02979  -0.02979  -1.94054
    D4        2.88467  -0.00680   0.00000  -0.00185  -0.00185   2.88281
    D5        3.14585  -0.06996   0.00000  -0.07062  -0.07062   3.07523
    D6        2.59787   0.04352   0.00000  -0.04959  -0.04959   2.54829
    D7        1.95567  -0.00559   0.00000  -0.08828  -0.08828   1.86738
    D8        2.78812   0.03774   0.00000  -0.03684  -0.03684   2.75128
    D9       -0.56418   0.00142   0.00000  -0.00498  -0.00498  -0.56916
   D10       -0.68428  -0.00008   0.00000   0.07780   0.07780  -0.60648
         Item               Value     Threshold  Converged?
 Maximum Force            0.079933     0.000450     NO 
 RMS     Force            0.023171     0.000300     NO 
 Maximum Displacement     0.184328     0.001800     NO 
 RMS     Displacement     0.053033     0.001200     NO 
 Predicted change in Energy=-2.105569D-03
 GradGradGradGradGradGradGradGradGradGradGradGradGradGradGradGradGradGrad

 ---------------------------------------------------------------------------------------------------
                            Z-MATRIX (ANGSTROMS AND DEGREES)
   CD    Cent   Atom    N1       Length/X        N2       Alpha/Y        N3        Beta/Z          J
 ---------------------------------------------------------------------------------------------------
      1      1  C 
      2      2  O        1   2.203291(     1)
      3      3  H        2   0.966892(     2)      1  106.527(    13)
      4      4  H        2   1.099404(     3)      1   69.398(    14)      3 -102.210(    24)      0
      5      5  H        1   1.082625(     4)      2   96.864(    15)      3    5.574(    25)      0
      6      6  H        1   1.083454(     5)      2   81.888(    16)      3 -111.185(    26)      0
      7      7  H        1   2.786771(     6)      2   72.991(    17)      3  165.173(    27)      0
      8      8  H        1   2.886433(     7)      2  108.648(    18)      3  176.198(    28)      0
      9      9  H        1   3.455929(     8)      2   97.868(    19)      3  146.006(    29)      0
     10     10  H        1   2.095822(     9)      2  124.745(    20)      3  106.993(    30)      0
     11     11  C        1   2.547191(    10)      2   95.174(    21)      3  157.637(    31)      0
     12     12  C        1   1.477341(    11)      2   99.637(    22)     11  -32.610(    32)      0
     13     13  O       12   1.412476(    12)      1   97.306(    23)      2  -34.749(    33)      0
 ---------------------------------------------------------------------------------------------------
                         Z-Matrix orientation:                         
 ---------------------------------------------------------------------
 Center     Atomic      Atomic             Coordinates (Angstroms)
[...]
     10  H        1   0.000008(     9)      2   0.000038(    20)      3  -0.000048(    30)     0
     11  C        1   0.000023(    10)      2   0.000070(    21)      3   0.000177(    31)     0
     12  C        1   0.000016(    11)      2  -0.000079(    22)     11   0.000048(    32)     0
     13  O       12   0.000004(    12)      1   0.000057(    23)      2   0.000014(    33)     0
 -----------------------------------------------------------------------------------------------
 Internal  Forces:  Max     0.005733469 RMS     0.001000406

 GradGradGradGradGradGradGradGradGradGradGradGradGradGradGradGradGradGrad
 Berny optimization.
 Search for a saddle point.
 Step number   1 out of a maximum of    2
 All quantities printed in internal units (Hartrees-Bohrs-Radians)
 Swaping is turned off.
 Second derivative matrix not updated -- analytic derivatives used.
 ITU=  0
     Eigenvalues ---   -0.08470   0.00317   0.01134   0.01362   0.01435
     Eigenvalues ---    0.03358   0.06381   0.08119   0.09028   0.11372
     Eigenvalues ---    0.14300   0.16394   0.18825   0.26999   0.28462
     Eigenvalues ---    0.29763   0.34247   0.37065   0.37324   0.41376
     Eigenvalues ---    0.48155   0.52989   0.63757   0.83153   1.16657
     Eigenvalues ---    2.61755   3.35613   3.90432   5.60279   6.75477
     Eigenvalues ---   16.59589  19.39201
 Eigenvectors required to have negative eigenvalues:
                          A11       B2        A10       A4        A8
   1                    0.50133   0.43437  -0.39611   0.37045  -0.30476
                          B8        A7        A9        D10       D5
   1                   -0.16761  -0.16499  -0.13930   0.12372  -0.10946
 Angle between quadratic step and forces=  85.41 degrees.
 Linear search not attempted -- option 19 set.
 Variable       Old X    -DE/DX   Delta X   Delta X   Delta X     New X
                                 (Linear)    (Quad)   (Total)
    B1        1.82835   0.00000   0.00000  -0.00001  -0.00001   1.82835
    B2        1.99770  -0.00001   0.00000  -0.00047  -0.00047   1.99724
    B3        2.04879   0.00000   0.00000   0.00000   0.00000   2.04879
    B4        2.04715   0.00000   0.00000   0.00000   0.00000   2.04715
    B5        5.23830  -0.00001   0.00000  -0.00035  -0.00035   5.23796
    B6        5.50873  -0.00005   0.00000  -0.00131  -0.00131   5.50742
    B7        6.53485  -0.00001   0.00000   0.00003   0.00003   6.53488
    B8        4.02728   0.00001   0.00000  -0.00003  -0.00003   4.02725
    B9        4.81687   0.00002   0.00000  -0.00033  -0.00033   4.81653
   B10        2.78605   0.00002   0.00000   0.00001   0.00001   2.78607
   B11        2.66333   0.00000   0.00000  -0.00006  -0.00006   2.66326
    A1        1.85852  -0.00002   0.00000  -0.00034  -0.00034   1.85818
    A2        1.20855   0.00000   0.00000   0.00015   0.00015   1.20870
    A3        1.71022  -0.00001   0.00000  -0.00079  -0.00079   1.70943
    A4        1.33300   0.00001   0.00000   0.00013   0.00013   1.33313
    A5        1.38749   0.00014   0.00000   0.00138   0.00138   1.38887
    A6        2.02264  -0.00016   0.00000   0.00146   0.00146   2.02411
    A7        1.71853   0.00000   0.00000   0.00118   0.00118   1.71971
    A8        2.22363   0.00004   0.00000   0.00019   0.00019   2.22382
    A9        1.73261   0.00007   0.00000   0.00127   0.00127   1.73388
   A10        1.81275  -0.00008   0.00000   0.00061   0.00061   1.81336
   A11        1.61416   0.00006   0.00000   0.00006   0.00006   1.61421
    D1       -1.77328   0.00000   0.00000  -0.00028  -0.00028  -1.77355
    D2        0.04296   0.00000   0.00000  -0.00064  -0.00064   0.04232
    D3       -1.99232   0.00001   0.00000  -0.00076  -0.00076  -1.99308
    D4        2.94293  -0.00007   0.00000  -0.00015  -0.00015   2.94278
    D5        2.98879  -0.00018   0.00000  -0.00031  -0.00031   2.98848
    D6        2.52042   0.00012   0.00000  -0.00026  -0.00026   2.52016
    D7        1.82671  -0.00005   0.00000  -0.00142  -0.00142   1.82529
    D8        2.72751   0.00018   0.00000  -0.00034  -0.00034   2.72717
    D9       -0.57146   0.00005   0.00000  -0.00030  -0.00030  -0.57176
   D10       -0.59834   0.00001   0.00000   0.00129   0.00129  -0.59705
         Item               Value     Threshold  Converged?
 Maximum Force            0.000177     0.000450     YES
 RMS     Force            0.000069     0.000300     YES
 Maximum Displacement     0.001461     0.001800     YES
 RMS     Displacement     0.000697     0.001200     YES
 Predicted change in Energy=-6.193419D-08
 Optimization completed.
    -- Stationary point found.
                       ----------------------------
                       !   Optimized Parameters   !
                       ! (Angstroms and Degrees)  !
 ----------------------                            ----------------------
 !      Name          Value   Derivative information (Atomic Units)     !
 ------------------------------------------------------------------------
 !       B1          0.9675   -DE/DX =    0.0                           !
 !       B2          1.0571   -DE/DX =    0.0                           !
 !       B3          1.0842   -DE/DX =    0.0                           !
 !       B4          1.0833   -DE/DX =    0.0                           !
 !       B5          2.772    -DE/DX =    0.0                           !
 !       B6          2.9151   -DE/DX =    0.0                           !
 !       B7          3.4581   -DE/DX =    0.0                           !
 !       B8          2.1311   -DE/DX =    0.0                           !
 !       B9          2.549    -DE/DX =    0.0                           !
 !       B10         1.4743   -DE/DX =    0.0                           !
 !       B11         1.4094   -DE/DX =    0.0                           !
 !       A1        106.4855   -DE/DX =    0.0                           !
 !       A2         69.2447   -DE/DX =    0.0                           !
 !       A3         97.9885   -DE/DX =    0.0                           !
 !       A4         76.3755   -DE/DX =    0.0                           !
 !       A5         79.4973   -DE/DX =    0.0001                        !
 !       A6        115.889    -DE/DX =   -0.0002                        !
 !       A7         98.4648   -DE/DX =    0.0                           !
 !       A8        127.4048   -DE/DX =    0.0                           !
 !       A9         99.2713   -DE/DX =    0.0001                        !
 !       A10       103.8631   -DE/DX =   -0.0001                        !
 !       A11        92.4843   -DE/DX =    0.0001                        !
 !       D1       -101.6013   -DE/DX =    0.0                           !
 !       D2          2.4615   -DE/DX =    0.0                           !
 !       D3       -114.1515   -DE/DX =    0.0                           !
 !       D4        168.6176   -DE/DX =   -0.0001                        !
 !       D5        171.2449   -DE/DX =   -0.0002                        !
 !       D6        144.4095   -DE/DX =    0.0001                        !
 !       D7        104.6626   -DE/DX =    0.0                           !
 !       D8        156.2748   -DE/DX =    0.0002                        !
 !       D9        -32.7424   -DE/DX =    0.0                           !
 !       D10       -34.2823   -DE/DX =    0.0                           !
 ------------------------------------------------------------------------
 GradGradGradGradGradGradGradGradGradGradGradGradGradGradGradGradGradGrad

 1\1\GINC-C46N07\Freq\RB3LYP\6-31++G(d,p)\C3H8O2\ROOT\06-Mar-2018\1\\#N
  Geom=AllCheck Guess=TCheck SCRF=Check GenChk RB3LYP/6-31++G(d,p) Freq
 \\OH-BACK-TERM\\0,1\C\O,1,2.20329058\H,2,B1,1,A1\H,2,B2,1,A2,3,D1,0\H,
 1,B3,2,A3,3,D2,0\H,1,B4,2,A4,3,D3,0\H,1,B5,2,A5,3,D4,0\H,1,B6,2,A6,3,D
 5,0\H,1,B7,2,A7,3,D6,0\H,1,B8,2,A8,3,D7,0\C,1,B9,2,A9,3,D8,0\C,1,B10,2
 ,A10,11,D9,0\O,12,B11,1,A11,2,D10,0\\B1=0.96752288\B2=1.05713974\B3=1.
 08417368\B4=1.08330647\B5=2.77199063\B6=2.91509641\B7=3.45809517\B8=2.
 13114481\B9=2.54897534\B10=1.47431613\B11=1.40937154\A1=106.48547186\A
 2=69.24466379\A3=97.98849331\A4=76.37550979\A5=79.4972917\A6=115.88901
 235\A7=98.46475232\A8=127.40478404\A9=99.27129435\A10=103.86305047\A11
 =92.48427272\D1=-101.60127996\D2=2.46152408\D3=-114.15149015\D4=168.61
 764158\D5=171.24490305\D6=144.40947785\D7=104.66259687\D8=156.27479823
 \D9=-32.74236574\D10=-34.28232054\\Version=EM64L-G09RevB.01\HF=-269.49
 27437\RMSD=3.662e-09\RMSF=1.327e-03\ZeroPoint=0.1069894\Thermal=0.1131
 12\Dipole=0.4221778,0.9152786,-1.182701\DipoleDeriv=0.1347148,-0.04946
 23,0.0635163,0.0872404,0.6399738,0.194035,0.1516881,0.2241617,0.756829
 4,-0.3499281,-0.0911246,-0.1304183,-0.1669978,-0.6380187,-0.353561,-0.
 2213522,-0.4524251,-1.2285018,0.1421996,0.029846,0.0205755,0.0590181,0
 .280971,0.0162127,0.0118488,-0.0126128,0.2780319,0.2509259,0.1059136,0
 .1105873,0.1425248,0.3799304,0.441597,0.0950061,0.1390224,0.6226527,-0
 .0088205,-0.0123356,-0.0101128,0.0021835,0.059688,0.0335182,-0.0183394
 ,-0.0020649,0.0057639,0.0576353,0.0381094,0.0250448,0.0230494,0.051930
 3,0.0346111,-0.0223692,-0.0898103,-0.0036981,0.0199435,0.009586,0.0104
 198,0.0458839,0.018195,-0.0703937,0.0831206,-0.078854,-0.0802523,-0.00
 37004,-0.0215455,-0.0211408,0.0539201,0.0176061,0.1009407,-0.0560759,0
 .0840761,-0.0509902,0.016217,-0.0194465,-0.0220626,-0.0901662,-0.07614
 41,-0.022356,0.00271,-0.0073728,0.0821679,-0.0278432,0.0328877,0.02881
 09,0.0189289,0.0733326,-0.0677437,0.0172477,-0.0760157,-0.1370667,-0.1
 161125,0.036154,-0.0284492,0.0258452,0.1237246,-0.012936,-0.05874,-0.0
 308391,0.0957385,0.5620652,0.0888799,0.2010051,-0.1521875,0.0774453,-0
 .1922726,0.2078126,0.2391581,0.5639088,-0.6772966,-0.1474621,-0.247776
 ,-0.049243,-1.0086344,-0.1016516,-0.1925572,0.0635764,-0.904584\Polar=
 51.363725,5.542084,55.8488862,6.286316,3.5702576,60.8104342\PG=C01 [X(
 C3H8O2)]\NImag=1\\0.63212126,-0.03588169,0.53632334,-0.05058607,0.1117
 1967,0.17107212,-0.01226919,0.00376181,0.00225298,0.52842896,-0.000446
 31,-0.02008078,-0.00263346,0.02529774,0.26869769,0.00560495,0.02423230
 ,0.01612750,0.15917776,0.10151254,0.11290911,0.00070170,-0.00197161,-0
 .00462475,-0.47838772,-0.01608304,-0.13943346,0.48452943,0.00141558,-0
 .00175029,-0.00042907,0.02122248,-0.03357097,0.00198500,0.00849963,0.0
 3024562,-0.00580494,0.00351712,0.00216929,-0.12904075,-0.00812147,-0.0
 5051164,0.14248341,0.00694195,0.05357130,0.00494729,0.00479074,0.00874
 987,-0.05114385,0.00917297,-0.01618779,-0.00890540,-0.03427168,-0.0110
 0541,0.07432599,0.00286917,0.02381466,0.03259044,-0.03144553,-0.170832
 57,-0.08056173,0.00788296,0.00893255,0.00165427,0.01436588,0.15107360,
 0.00383147,0.02425517,-0.00148908,-0.01325323,-0.01884096,-0.04798645,
 0.00002613,-0.00568638,-0.00297055,0.00827963,-0.01044278,0.04140326,-
 0.35095181,0.01363102,0.04765508,0.00126495,-0.00001685,-0.00130183,0.
 00050079,-0.00011394,0.00052260,-0.00039991,0.00033358,0.00035626,0.36
 320407,0.01926017,-0.05571524,-0.00763332,-0.00279214,-0.00093532,0.00
 278346,-0.00008371,0.00074587,-0.00078406,0.00007810,0.00082724,0.0006
 9447,-0.01462870,0.04939420,0.04241155,-0.01173320,-0.04062349,0.00415
 956,0.00030559,-0.00550004,0.00046664,-0.00041102,-0.00043830,0.000383
 46,-0.00018510,-0.00041719,-0.04494434,0.00889332,0.03626649,-0.111234
 02,0.10193085,0.03115440,0.00054320,-0.00119841,0.00096333,0.00008161,
 0.00057688,0.00016616,0.00024897,0.00059234,0.00066654,-0.00463045,0.0
 2376833,0.00602562,0.10186393,0.10631656,-0.29574620,-0.06840860,0.000
 53230,-0.00130424,0.00666906,-0.00078272,0.00014597,0.00059695,0.00106
 494,0.00358492,0.00248721,-0.00311690,0.00526453,-0.00294819,-0.112120
 43,0.29580594,0.03232539,-0.06768499,-0.04641431,-0.00543860,0.0106013
 0,-0.02310308,0.00116024,0.00133534,-0.00280298,-0.00157818,-0.0074166
 8,-0.00541246,-0.00093434,-0.00526397,0.00567349,-0.03273276,0.0762147
 4,0.05168857,0.00133856,0.00158751,0.00144975,0.00026787,-0.00029126,-
 0.00044695,0.00010987,-0.00012988,0.00005834,-0.00045019,0.00071224,0.
 00020911,0.00027676,-0.00012105,-0.00007763,-0.00015575,-0.00089048,-0
 .00006997,0.08283268,-0.00064269,0.00117445,0.00041839,-0.00012268,0.0
 0005717,0.00018148,-0.00007957,-0.00003065,-0.00003687,0.00041996,-0.0
 0005038,-0.00026099,0.00014778,-0.00008039,0.00018925,0.00018386,0.000
 13418,-0.00018659,-0.04086105,0.10068560,-0.00019850,-0.00034517,-0.00
 008608,-0.00018603,0.00042040,0.00024187,-0.00009797,-0.00003883,-0.00
 001578,0.00002602,-0.00059645,-0.00033322,0.00000646,0.00020746,0.0001
 9432,0.00063386,0.00033761,-0.00005296,-0.07979089,0.10628905,0.251173
 63,0.00137661,0.00087084,0.00059004,0.00029930,-0.00019206,-0.00121280
 ,0.00006850,0.00004672,0.00009110,-0.00026644,-0.00000819,0.00025786,0
 .00016635,0.00018661,-0.00002376,-0.00012159,-0.00026123,-0.00029736,0
 .00239945,-0.00742797,0.00817942,0.06848010,0.00058226,-0.00029242,-0.
 00028235,-0.00008777,0.00019889,0.00056208,-0.00005512,-0.00000502,-0.
 00003481,0.00025394,-0.00015980,-0.00012160,0.00008565,0.00007700,0.00
 001811,0.00001819,-0.00001812,0.00000912,-0.00511451,0.00881107,-0.011
 87659,-0.04242826,0.13640944,-0.00034353,0.00093801,-0.00019525,-0.000
 09105,-0.00016175,-0.00012349,-0.00003029,0.00002060,0.00002782,0.0004
 2279,0.00007114,0.00019036,0.00001053,-0.00007250,-0.00015871,-0.00019
 745,-0.00021782,-0.00026004,-0.00726081,0.01525817,-0.01874006,0.05840
 204,-0.12754908,0.22570706,-0.00678800,0.00088478,0.00106482,0.0000779
 3,0.00008217,0.00040870,0.00002347,-0.00000259,0.00005759,-0.00009383,
 0.00013736,0.00010287,-0.00103828,-0.00119746,-0.00130241,0.00004197,-
 0.00003979,0.00017339,0.00481672,0.01055541,0.00021420,0.00396694,0.00
 861608,0.00167251,0.10527899,0.00136740,0.00037750,0.00095492,-0.00005
 626,0.00001667,-0.00014867,-0.00000692,0.00002769,0.00001691,0.0000389
 6,-0.00004354,0.00007378,0.00029716,0.00046649,-0.00037778,0.00026301,
 0.00020340,0.00021555,-0.00514080,-0.01113079,-0.00015516,-0.00711747,
 -0.01468397,-0.00259177,0.11427501,0.28499818,-0.00038932,-0.00037516,
 0.00024901,-0.00006435,0.00014518,0.00027406,-0.00007294,0.00001474,0.
 00004328,0.00008196,-0.00028478,-0.00005196,-0.00013042,0.00006485,-0.
 00011436,0.00008157,0.00010821,0.00009888,-0.01275770,-0.02442710,-0.0
 0179954,0.01232077,0.02289227,0.00294610,0.01070152,0.02463367,0.04820
 048,0.00594056,-0.01063047,-0.01147210,-0.00035798,-0.00222010,0.00086
 822,0.00009723,-0.00004027,0.00008841,0.00031320,0.00335938,0.00178668
 ,0.00066537,0.00020103,0.00003703,-0.00113104,-0.00263648,0.00042721,-
 0.00658326,0.00060676,-0.00025072,0.00135952,0.00018352,-0.00050343,0.
 00116874,-0.00053236,0.00007657,0.08596291,0.00986593,-0.01927419,-0.0
 2323669,0.00034606,0.00122340,0.00211053,-0.00001259,0.00008750,0.0001
 2055,-0.00020283,-0.00173952,0.00054056,-0.00016624,0.00103486,0.00105
 456,-0.00284576,-0.00351487,0.00003767,0.00028099,0.00107554,0.0004221
 8,0.00005854,-0.00005505,-0.00010533,0.00014044,0.00055026,0.00047947,
 -0.03780272,0.10037592,0.00021259,-0.00341478,-0.00430889,-0.00048258,
 -0.00324334,-0.00148803,-0.00002070,-0.00002449,0.00005591,0.00128627,
 0.00530407,0.00198801,-0.00007881,-0.00052006,0.00106803,-0.00088077,0
 .00110997,-0.00179128,-0.00068797,0.00001933,0.00122305,0.00073481,-0.
 00034649,0.00041306,0.00012335,0.00017521,0.00002924,-0.07077142,0.094
 23828,0.24033518,-0.02137233,-0.00137923,-0.00204707,-0.00059994,0.000
 16624,0.00020080,-0.00022699,-0.00002781,-0.00001859,0.00048157,-0.000
 54122,-0.00064942,0.00030926,-0.00108524,0.00114683,0.00189536,0.00180
 319,-0.00076342,-0.07513618,0.03689116,0.07243928,-0.06571367,0.038521
 90,-0.05222952,-0.09613846,-0.10534672,-0.00970474,-0.01357333,0.00117
 304,-0.00004158,0.47061250,-0.03351537,0.00142847,0.00096173,0.0001749
 3,0.00053618,0.00099562,0.00007199,-0.00009159,0.00012688,-0.00056768,
 -0.00007756,-0.00018875,-0.00391514,-0.00380080,-0.00342414,0.00033192
 ,0.00116093,0.00050620,0.03668605,-0.09773552,-0.09634503,0.03779674,-
 0.12895534,0.11581574,-0.10326142,-0.26590172,-0.02301147,0.01482837,0
 .00055979,-0.00094508,0.01425688,0.57464074,-0.00471935,-0.00065018,0.
 00132560,0.00074024,-0.00055044,-0.00215507,0.00025870,0.00023403,0.00
 000045,-0.00147434,0.00046410,0.00048558,-0.00040203,-0.00042194,0.000
 85474,-0.00069013,0.00114542,-0.00048451,0.06992519,-0.09602864,-0.233
 76344,-0.05142234,0.11478804,-0.21055447,-0.01040480,-0.02290238,-0.04
 898086,0.02710463,-0.00236331,0.00147560,-0.00525014,0.00233415,0.5765
 0141,-0.14241587,-0.09310112,-0.02579535,0.00185474,0.00116825,0.00714
 127,-0.00060210,0.00022563,0.00053531,-0.00100659,-0.00152955,-0.00167
 088,-0.01274424,-0.02155168,-0.01688574,0.01149083,0.00879708,0.012838
 71,-0.01327240,0.00095851,-0.00141515,-0.00356687,-0.00216324,0.001872
 45,-0.01515530,0.00281088,-0.00047889,-0.07948606,0.03195824,0.0754391
 4,-0.19164885,0.01195759,0.01079471,0.52572045,-0.07010977,-0.15473193
 ,-0.06716524,-0.00352534,-0.01589421,-0.00922748,0.00081529,0.00021284
 ,-0.00044856,-0.00116698,0.01591384,0.00692987,0.00501365,0.00238457,0
 .00644310,-0.01043934,-0.00893698,0.00250436,0.01461887,-0.00196211,0.
 00185422,0.01806485,-0.00285255,-0.00141528,-0.03188199,0.00408527,-0.
 00007640,0.03123811,-0.09524337,-0.09213998,0.00815827,-0.08023633,-0.
 00395097,0.01844444,0.43334101,-0.02626536,-0.10880841,-0.05886759,0.0
 0007255,-0.00841291,0.02152356,-0.00025731,-0.00010835,0.00201439,-0.0
 0134230,0.02196371,0.00040493,0.00049438,0.00500396,0.00186225,-0.0071
 2863,-0.01654052,0.01292485,0.03073453,-0.00182255,-0.00048259,-0.0269
 4187,0.00149230,-0.00041389,-0.00320576,0.00092723,-0.00105216,0.06756
 046,-0.10050606,-0.19959730,0.00917541,-0.00361472,-0.07675958,-0.0186
 2747,0.10054455,0.47893971,-0.00139474,0.01550657,0.00160840,0.0100217
 5,-0.01543935,-0.01578220,0.00200961,0.00259924,0.00186677,-0.01805080
 ,0.00327158,0.00005697,0.00337714,-0.00203427,0.00860318,0.00110698,0.
 00133396,-0.00511031,0.00355588,-0.00062950,0.00044002,-0.00844819,0.0
 0158735,-0.00172423,0.00383912,-0.00085189,0.00033597,0.00562414,-0.00
 279311,-0.00483234,-0.00888894,0.02515513,-0.03446035,-0.07916774,0.02
 076993,-0.02426863,0.08641579,-0.00108124,-0.01552737,0.02314358,-0.01
 330560,-0.02811190,-0.05109419,0.00180539,-0.00494952,-0.00354888,0.00
 602367,-0.03124344,0.00056041,0.00244892,0.00033701,0.00217550,-0.0010
 6145,0.00322055,-0.01087205,-0.00133664,-0.00094817,-0.00017369,0.0004
 1086,0.00152588,0.00000987,0.00169200,0.00103456,-0.00016348,0.0034452
 0,0.01491974,-0.00021265,0.00740956,-0.00152725,0.00790212,0.04202497,
 -0.09608005,0.10988177,-0.04847565,0.15734995,0.00392111,0.02834961,-0
 .03895885,-0.01784650,-0.07102068,-0.02020832,0.00014229,-0.00383353,-
 0.00114318,0.01235803,0.03743978,0.01418877,-0.00125354,-0.00295167,0.
 00133277,0.00193824,-0.00055404,0.00993582,-0.00128500,0.00040709,0.00
 244079,-0.00067790,0.00044900,0.00116151,0.00039400,-0.00082152,0.0001
 5785,-0.01495154,0.02720759,-0.03940257,-0.01225784,0.00678889,-0.0079
 4545,-0.04374812,0.05614781,-0.18049657,0.07326676,-0.07760832,0.25893
 741\\0.00052234,0.00103930,0.00576045,-0.00050118,-0.00096196,-0.00573
 601,-0.00000209,-0.00009220,0.00000837,-0.00000237,-0.00000949,-0.0000
 0583,-0.00000042,0.00000171,-0.00000282,-0.00000332,-0.00000339,0.0000
 0578,-0.00001219,0.00001173,0.00002925,-0.00003555,0.00003045,-0.00004
 774,0.00000132,-0.00002242,-0.00000142,-0.00001432,0.00000406,0.000012
 05,0.00002938,-0.00001673,0.00001798,0.00000382,0.00000170,-0.00003980
 ,0.00001457,0.00001724,-0.00000026\\\@


 EVERYBODY NEEDS BEAUTY AS WELL AS BREAD, PLACES TO PLAY IN AND PRAY IN,
 WHERE NATURE MAY HEAL AND CHEER AND GIVE STRENGTH TO BODY AND SOUL ALIKE.

                                    -- JOHN MUIR
 Job cpu time:  0 days  0 hours  8 minutes 54.2 seconds.
 File lengths (MBytes):  RWF=   1248 Int=      0 D2E=      0 Chk=     32 Scr=     32
 Normal termination of Gaussian 09 at Tue Mar  6 17:07:38 2018.
