 Entering Gaussian System, Link 0=g09
 Input=H3O-term-field-2.gjf
 Output=H3O-term-field-2.log
 Initial command:
 /share/home/zxchen/g09/l1.exe /scratch/zxchen/Gau-30192.inp -scrdir=/scratch/zxchen/
 Entering Link 1 = /share/home/zxchen/g09/l1.exe PID=     30193.
  
 Copyright (c) 1988,1990,1992,1993,1995,1998,2003,2009,2010,
            Gaussian, Inc.  All Rights Reserved.
  
 This is part of the Gaussian(R) 09 program.  It is based on
 the Gaussian(R) 03 system (copyright 2003, Gaussian, Inc.),
 the Gaussian(R) 98 system (copyright 1998, Gaussian, Inc.),
 the Gaussian(R) 94 system (copyright 1995, Gaussian, Inc.),
 the Gaussian 92(TM) system (copyright 1992, Gaussian, Inc.),
 the Gaussian 90(TM) system (copyright 1990, Gaussian, Inc.),
 the Gaussian 88(TM) system (copyright 1988, Gaussian, Inc.),
 the Gaussian 86(TM) system (copyright 1986, Carnegie Mellon
 University), and the Gaussian 82(TM) system (copyright 1983,
 Carnegie Mellon University). Gaussian is a federally registered
 trademark of Gaussian, Inc.
  
 This software contains proprietary and confidential information,
 including trade secrets, belonging to Gaussian, Inc.
  
 This software is provided under written license and may be
 used, copied, transmitted, or stored only in accord with that
 written license.
  
 The following legend is applicable only to US Government
 contracts under FAR:
  
                    RESTRICTED RIGHTS LEGEND
  
 Use, reproduction and disclosure by the US Government is
 subject to restrictions as set forth in subparagraphs (a)
 and (c) of the Commercial Computer Software - Restricted
 Rights clause in FAR 52.227-19.
  
 Gaussian, Inc.
 340 Quinnipiac St., Bldg. 40, Wallingford CT 06492
  
  
 ---------------------------------------------------------------
 Warning -- This program may not be used in any manner that
 competes with the business of Gaussian, Inc. or will provide
 assistance to any competitor of Gaussian, Inc.  The licensee
 of this program is prohibited from giving any competitor of
 Gaussian, Inc. access to this program.  By using this program,
 the user acknowledges that Gaussian, Inc. is engaged in the
 business of creating and licensing software in the field of
 computational chemistry and represents and warrants to the
 licensee that it is not a competitor of Gaussian, Inc. and that
 it will not use this program in any manner prohibited above.
 ---------------------------------------------------------------
  

 Cite this work as:
 Gaussian 09, Revision B.01,
 M. J. Frisch, G. W. Trucks, H. B. Schlegel, G. E. Scuseria, 
 M. A. Robb, J. R. Cheeseman, G. Scalmani, V. Barone, B. Mennucci, 
 G. A. Petersson, H. Nakatsuji, M. Caricato, X. Li, H. P. Hratchian, 
 A. F. Izmaylov, J. Bloino, G. Zheng, J. L. Sonnenberg, M. Hada, 
 M. Ehara, K. Toyota, R. Fukuda, J. Hasegawa, M. Ishida, T. Nakajima, 
 Y. Honda, O. Kitao, H. Nakai, T. Vreven, J. A. Montgomery, Jr., 
 J. E. Peralta, F. Ogliaro, M. Bearpark, J. J. Heyd, E. Brothers, 
 K. N. Kudin, V. N. Staroverov, T. Keith, R. Kobayashi, J. Normand, 
 K. Raghavachari, A. Rendell, J. C. Burant, S. S. Iyengar, J. Tomasi, 
 M. Cossi, N. Rega, J. M. Millam, M. Klene, J. E. Knox, J. B. Cross, 
 V. Bakken, C. Adamo, J. Jaramillo, R. Gomperts, R. E. Stratmann, 
 O. Yazyev, A. J. Austin, R. Cammi, C. Pomelli, J. W. Ochterski, 
 R. L. Martin, K. Morokuma, V. G. Zakrzewski, G. A. Voth, 
 P. Salvador, J. J. Dannenberg, S. Dapprich, A. D. Daniels, 
 O. Farkas, J. B. Foresman, J. V. Ortiz, J. Cioslowski, 
 and D. J. Fox, Gaussian, Inc., Wallingford CT, 2010.
 
 ******************************************
 Gaussian 09:  EM64L-G09RevB.01 12-Aug-2010
                26-Apr-2018 
 ******************************************
 %chk=H3O-term-field-2.chk
 %nprocshared=24
 Will use up to   24 processors via shared memory.
 ----------------------------------------------------------------------
 # field=z+50 opt=(ts,noeigen,calcfc,z-matrix,tight) freq b3lyp/6-31++g
 (d,p)
 ----------------------------------------------------------------------
 1/5=1,7=10,10=4,11=1,14=-1,18=40,26=3,38=1/1,3;
 2/12=2,17=6,18=5,29=3,40=1/2;
 3/5=1,6=6,7=1111,11=2,14=3,15=50,16=1,25=1,30=1,71=2,74=-5/1,2,3;
 4//1;
 5/5=2,38=5/2;
 8/6=4,10=90,11=11/1;
 11/6=1,8=1,9=11,15=111,16=1/1,2,10;
 10/6=1,7=6,13=1/2;
 6/7=2,8=2,9=2,10=2,28=1/1;
 7/10=1,18=20,25=1/1,2,3,16;
 1/5=1,7=10,10=4,11=1,14=-1,18=40/3(2);
 2/29=3/2;
 99//99;
 2/29=3/2;
 3/5=1,6=6,7=1111,11=2,14=3,15=50,16=1,25=1,30=1,71=1,74=-5/1,2,3;
 4/5=5,16=3/1;
 5/5=2,38=5/2;
 7//1,2,3,16;
 1/5=1,7=10,11=1,14=-1,18=40/3(-5);
 2/29=3/2;
 6/7=2,8=2,9=2,10=2,19=2,28=1/1;
 99/9=1/99;
 -------------
 H3O-BACK-TERM
 -------------
 Symbolic Z-matrix:
 Charge =  1 Multiplicity = 1
 C
 O                    1    B1
 H                    1    B2       2    A1
 H                    1    B3       2    A2       3    D1       0
 H                    1    B4       2    A3       3    D2       0
 H                    1    B5       2    A4       3    D3       0
 H                    1    B6       2    A5       3    D4       0
 H                    2    B7       1    A6       7    D5       0
 H                    2    B8       1    A7       7    D6       0
 H                    1    B9       2    A8       8    D7       0
 C                    1    B10      2    A9       8    D8       0
 C                    1    B11      2    A10      11   D9       0
 O                    12   B12      1    A11      2    D10      0
 H                    11   B13      1    A12      12   D11      0
       Variables:
  B1                    2.09416                  
  B2                    3.07062                  
  B3                    3.46269                  
  B4                    2.17655                  
  B5                    2.36657                  
  B6                    1.08206                  
  B7                    0.96797                  
  B8                    0.96868                  
  B9                    1.08081                  
  B10                   2.59881                  
  B11                   1.47308                  
  B12                   1.48209                  
  B13                   1.09281                  
  A1                   79.21953                  
  A2                  109.9017                   
  A3                  104.87648                  
  A4                  161.08819                  
  A5                   88.44179                  
  A6                  122.72296                  
  A7                  119.66994                  
  A8                   84.05555                  
  A9                   98.5575                   
  A10                 111.88364                  
  A11                  74.77939                  
  A12                  87.33526                  
  D1                    0.48911                  
  D2                   49.09869                  
  D3                   81.9083                   
  D4                  143.27808                  
  D5                  122.80059                  
  D6                  -17.40374                  
  D7                 -117.59709                  
  D8                  -26.16559                  
  D9                   27.35735                  
  D10                -173.65509                  
  D11                 147.25597                  
 

 GradGradGradGradGradGradGradGradGradGradGradGradGradGradGradGradGradGrad
 Berny optimization.
 Initialization pass.
                       ----------------------------
                       !    Initial Parameters    !
                       ! (Angstroms and Degrees)  !
 ----------------------                            ----------------------
 !      Name          Value   Derivative information (Atomic Units)     !
 ------------------------------------------------------------------------
 !       B1          2.0942   calculate D2E/DX2 analytically            !
 !       B2          3.0706   calculate D2E/DX2 analytically            !
 !       B3          3.4627   calculate D2E/DX2 analytically            !
 !       B4          2.1765   calculate D2E/DX2 analytically            !
 !       B5          2.3666   calculate D2E/DX2 analytically            !
 !       B6          1.0821   calculate D2E/DX2 analytically            !
 !       B7          0.968    calculate D2E/DX2 analytically            !
 !       B8          0.9687   calculate D2E/DX2 analytically            !
 !       B9          1.0808   calculate D2E/DX2 analytically            !
 !       B10         2.5988   calculate D2E/DX2 analytically            !
 !       B11         1.4731   calculate D2E/DX2 analytically            !
 !       B12         1.4821   calculate D2E/DX2 analytically            !
 !       B13         1.0928   calculate D2E/DX2 analytically            !
 !       A1         79.2195   calculate D2E/DX2 analytically            !
 !       A2        109.9017   calculate D2E/DX2 analytically            !
 !       A3        104.8765   calculate D2E/DX2 analytically            !
 !       A4        161.0882   calculate D2E/DX2 analytically            !
 !       A5         88.4418   calculate D2E/DX2 analytically            !
 !       A6        122.723    calculate D2E/DX2 analytically            !
 !       A7        119.6699   calculate D2E/DX2 analytically            !
 !       A8         84.0556   calculate D2E/DX2 analytically            !
 !       A9         98.5575   calculate D2E/DX2 analytically            !
 !       A10       111.8836   calculate D2E/DX2 analytically            !
 !       A11        74.7794   calculate D2E/DX2 analytically            !
 !       A12        87.3353   calculate D2E/DX2 analytically            !
 !       D1          0.4891   calculate D2E/DX2 analytically            !
 !       D2         49.0987   calculate D2E/DX2 analytically            !
 !       D3         81.9083   calculate D2E/DX2 analytically            !
 !       D4        143.2781   calculate D2E/DX2 analytically            !
 !       D5        122.8006   calculate D2E/DX2 analytically            !
 !       D6        -17.4037   calculate D2E/DX2 analytically            !
 !       D7       -117.5971   calculate D2E/DX2 analytically            !
 !       D8        -26.1656   calculate D2E/DX2 analytically            !
 !       D9         27.3574   calculate D2E/DX2 analytically            !
 !       D10      -173.6551   calculate D2E/DX2 analytically            !
 !       D11       147.256    calculate D2E/DX2 analytically            !
 ------------------------------------------------------------------------
 Trust Radius=3.00D-01 FncErr=1.00D-07 GrdErr=1.00D-06
 Number of steps in this run=     46 maximum allowed number of steps=    100.
 Search for a saddle point of order  1.
 GradGradGradGradGradGradGradGradGradGradGradGradGradGradGradGradGradGrad

 ---------------------------------------------------------------------------------------------------
                            Z-MATRIX (ANGSTROMS AND DEGREES)
   CD    Cent   Atom    N1       Length/X        N2       Alpha/Y        N3        Beta/Z          J
 ---------------------------------------------------------------------------------------------------
      1      1  C 
      2      2  O        1   2.094159(     1)
      3      3  H        1   3.070621(     2)      2   79.220(    14)
      4      4  H        1   3.462691(     3)      2  109.902(    15)      3    0.489(    26)      0
      5      5  H        1   2.176547(     4)      2  104.876(    16)      3   49.099(    27)      0
      6      6  H        1   2.366567(     5)      2  161.088(    17)      3   81.908(    28)      0
      7      7  H        1   1.082059(     6)      2   88.442(    18)      3  143.278(    29)      0
      8      8  H        2   0.967970(     7)      1  122.723(    19)      7  122.801(    30)      0
      9      9  H        2   0.968681(     8)      1  119.670(    20)      7  -17.404(    31)      0
     10     10  H        1   1.080808(     9)      2   84.056(    21)      8 -117.597(    32)      0
     11     11  C        1   2.598806(    10)      2   98.557(    22)      8  -26.166(    33)      0
     12     12  C        1   1.473084(    11)      2  111.884(    23)     11   27.357(    34)      0
     13     13  O       12   1.482086(    12)      1   74.779(    24)      2 -173.655(    35)      0
     14     14  H       11   1.092812(    13)      1   87.335(    25)     12  147.256(    36)      0
 ---------------------------------------------------------------------------------------------------
                         Z-Matrix orientation:                         
 ---------------------------------------------------------------------
 Center     Atomic      Atomic             Coordinates (Angstroms)
 Number     Number       Type             X           Y           Z
 ---------------------------------------------------------------------
      1          6           0        0.000000    0.000000    0.000000
      2          8           0        0.000000    0.000000    2.094159
      3          1           0        3.016428    0.000000    0.574349
      4          1           0        3.255774   -0.027794   -1.178726
      5          1           0        1.377344   -1.589976   -0.558798
      6          1           0        0.107966   -0.759397   -2.238816
      7          1           0       -0.867000   -0.646758    0.029424
      8          1           0        0.762889   -0.284891    2.617422
      9          1           0       -0.794289   -0.278439    2.573659
     10          1           0       -0.133236    1.066708    0.111933
     11          6           0        2.557220    0.254708   -0.386707
     12          6           0        1.270337   -0.504739   -0.549052
     13          8           0        0.500820   -0.028926   -1.722945
     14          1           0        2.391346    1.333936   -0.431319
 ---------------------------------------------------------------------
                    Distance matrix (angstroms):
                    1          2          3          4          5
     1  C    0.000000
     2  O    2.094159   0.000000
     3  H    3.070621   3.377671   0.000000
     4  H    3.462691   4.616559   1.769557   0.000000
     5  H    2.176547   3.385747   2.549243   2.520560   0.000000
     6  H    2.366567   4.400342   4.117005   3.401136   2.263546
     7  H    1.082059   2.330904   3.974450   4.340508   2.504545
     8  H    2.741179   0.967970   3.055118   4.548771   3.488435
     9  H    2.707793   0.968681   4.312347   5.526864   4.030931
    10  H    1.080808   2.254958   3.357392   3.788024   3.128850
    11  C    2.598806   3.571967   1.095161   1.093197   2.196493
    12  C    1.473084   2.975749   2.136732   2.136803   1.090543
    13  O    1.794491   3.849927   3.406858   2.808193   2.135512
    14  H    2.771995   3.725045   1.783671   1.777684   3.097372
                    6          7          8          9         10
     6  H    0.000000
     7  H    2.471469   0.000000
     8  H    4.923122   3.079808   0.000000
     9  H    4.919888   2.571785   1.557806   0.000000
    10  H    2.986446   1.865793   2.984516   2.882101   0.000000
    11  C    3.233815   3.565261   3.540562   4.503402   2.854214
    12  C    2.066703   2.218786   3.214404   3.750362   2.208249
    13  O    0.976752   2.307259   4.355799   4.494482   2.229174
    14  H    3.586490   3.840866   3.816713   4.666682   2.596160
                   11         12         13         14
    11  C    0.000000
    12  C    1.503058   0.000000
    13  O    2.468757   1.482086   0.000000
    14  H    1.092812   2.156675   2.664541   0.000000
 Stoichiometry    C3H9O2(1+)
 Framework group  C1[X(C3H9O2)]
 Deg. of freedom    36
 Full point group                 C1      NOp   1
 Largest Abelian subgroup         C1      NOp   1
 Largest concise Abelian subgroup C1      NOp   1
                         Standard orientation:                         
 ---------------------------------------------------------------------
 Center     Atomic      Atomic             Coordinates (Angstroms)
 Number     Number       Type             X           Y           Z
 ---------------------------------------------------------------------
      1          6           0       -0.388684   -0.729779   -0.161420
      2          8           0       -2.275084    0.171254   -0.038387
      3          1           0        0.403799    2.212683    0.216204
      4          1           0        2.086982    1.668709    0.168061
      5          1           0        0.718251    0.056682    1.539617
      6          1           0        1.677521   -1.693938    0.472483
      7          1           0       -0.789446   -1.574748    0.382885
      8          1           0       -2.414176    1.041552    0.361864
      9          1           0       -3.050965   -0.367873    0.175372
     10          1           0       -0.551044   -0.663916   -1.227932
     11          6           0        1.069226    1.421506   -0.145213
     12          6           0        0.659266    0.104391    0.451716
     13          8           0        1.380904   -1.027293   -0.176861
     14          1           0        1.033664    1.392455   -1.237060
 ---------------------------------------------------------------------
 Rotational constants (GHZ):      6.8007869      2.9925568      2.2556152
 Standard basis: 6-31++G(d,p) (6D, 7F)
 The following finite field(s) will be applied:
 An electric field of              0.0000  0.0000  0.0050
 There are   149 symmetry adapted basis functions of A   symmetry.
 Integral buffers will be    131072 words long.
 Raffenetti 2 integral format.
 Two-electron integral symmetry is turned on.
   149 basis functions,   232 primitive gaussians,   149 cartesian basis functions
    21 alpha electrons       21 beta electrons
       nuclear repulsion energy       194.2203126660 Hartrees.
 NAtoms=   14 NActive=   14 NUniq=   14 SFac= 1.00D+00 NAtFMM=   50 NAOKFM=F Big=F
 One-electron integrals computed using PRISM.
 PrsmSu:  requested number of processors reduced to:  10 ShMem   1 Linda.
 NBasis=   149 RedAO= T  NBF=   149
 NBsUse=   149 1.00D-06 NBFU=   149
 The nuclear repulsion energy is now       194.2203126660 hartrees.
 Harris functional with IExCor=  402 diagonalized for initial guess.
 ExpMin= 3.60D-02 ExpMax= 5.48D+03 ExpMxC= 8.25D+02 IAcc=3 IRadAn=         0 AccDes= 0.00D+00
 HarFok:  IExCor=  402 AccDes= 0.00D+00 IRadAn=         0 IDoV= 1
 ScaDFX=  1.000000  1.000000  1.000000  1.000000
 FoFCou: FMM=F IPFlag=           0 FMFlag=      100000 FMFlg1=           0
         NFxFlg=           0 DoJE=T BraDBF=F KetDBF=T FulRan=T
         Omega=  0.000000  0.000000  1.000000  0.000000  0.000000 ICntrl=     500 IOpCl=  0
         NMat0=    1 NMatS0=    1 NMatT0=    0 NMatD0=    1 NMtDS0=    0 NMtDT0=    0
         I1Cent=           4 NGrid=           0.
 Petite list used in FoFCou.
 Initial guess orbital symmetries:
       Occupied  (A) (A) (A) (A) (A) (A) (A) (A) (A) (A) (A) (A)
                 (A) (A) (A) (A) (A) (A) (A) (A) (A)
       Virtual   (A) (A) (A) (A) (A) (A) (A) (A) (A) (A) (A) (A)
                 (A) (A) (A) (A) (A) (A) (A) (A) (A) (A) (A) (A)
                 (A) (A) (A) (A) (A) (A) (A) (A) (A) (A) (A) (A)
                 (A) (A) (A) (A) (A) (A) (A) (A) (A) (A) (A) (A)
                 (A) (A) (A) (A) (A) (A) (A) (A) (A) (A) (A) (A)
                 (A) (A) (A) (A) (A) (A) (A) (A) (A) (A) (A) (A)
                 (A) (A) (A) (A) (A) (A) (A) (A) (A) (A) (A) (A)
                 (A) (A) (A) (A) (A) (A) (A) (A) (A) (A) (A) (A)
                 (A) (A) (A) (A) (A) (A) (A) (A) (A) (A) (A) (A)
                 (A) (A) (A) (A) (A) (A) (A) (A) (A) (A) (A) (A)
                 (A) (A) (A) (A) (A) (A) (A) (A)
 The electronic state of the initial guess is 1-A.
 Requested convergence on RMS density matrix=1.00D-08 within 128 cycles.
 Requested convergence on MAX density matrix=1.00D-06.
 Requested convergence on             energy=1.00D-06.
 No special actions if energy rises.
 SCF Done:  E(RB3LYP) =  -269.880835737     A.U. after   12 cycles
             Convg  =    0.3994D-08             -V/T =  2.0093
 Range of M.O.s used for correlation:     1   149
 NBasis=   149 NAE=    21 NBE=    21 NFC=     0 NFV=     0
 NROrb=    149 NOA=    21 NOB=    21 NVA=   128 NVB=   128

 **** Warning!!: The largest alpha MO coefficient is  0.42779320D+02

 PrsmSu:  requested number of processors reduced to:  10 ShMem   1 Linda.
 PrsmSu:  requested number of processors reduced to:  17 ShMem   1 Linda.
 Symmetrizing basis deriv contribution to polar:
 IMax=3 JMax=2 DiffMx= 0.00D+00
 G2DrvN: will do     3 centers at a time, making    5 passes doing MaxLOS=2.
 Estimated number of processors is:   15
 Calling FoFCou, ICntrl=  3107 FMM=F I1Cent=   0 AccDes= 0.00D+00.
 CoulSu:  requested number of processors reduced to:  15 ShMem   1 Linda.
 Calling FoFCou, ICntrl=  3107 FMM=F I1Cent=   0 AccDes= 0.00D+00.
 CoulSu:  requested number of processors reduced to:  15 ShMem   1 Linda.
 Calling FoFCou, ICntrl=  3107 FMM=F I1Cent=   0 AccDes= 0.00D+00.
 CoulSu:  requested number of processors reduced to:  15 ShMem   1 Linda.
 Calling FoFCou, ICntrl=  3107 FMM=F I1Cent=   0 AccDes= 0.00D+00.
 CoulSu:  requested number of processors reduced to:  15 ShMem   1 Linda.
 Calling FoFCou, ICntrl=  3107 FMM=F I1Cent=   0 AccDes= 0.00D+00.
 CoulSu:  requested number of processors reduced to:  15 ShMem   1 Linda.
 FoFDir/FoFCou used for L=0 through L=2.
 End of G2Drv Frequency-dependent properties file   721 does not exist.
 End of G2Drv Frequency-dependent properties file   722 does not exist.
          IDoAtm=11111111111111
          Differentiating once with respect to nuclear coordinates.
 PrRfSu:  requested number of processors reduced to:  16 ShMem   1 Linda.
 CalDSu:  requested number of processors reduced to:  21 ShMem   1 Linda.
 PrRfSu:  requested number of processors reduced to:  16 ShMem   1 Linda.
 CalDSu:  requested number of processors reduced to:  21 ShMem   1 Linda.
          There are    45 degrees of freedom in the 1st order CPHF.  IDoFFX=5.
     39 vectors produced by pass  0 Test12= 5.97D-11 2.22D-07 XBig12= 1.12D-01 1.10D-01.
 AX will form    20 AO Fock derivatives at one time.
 PrRfSu:  requested number of processors reduced to:  16 ShMem   1 Linda.
 CalDSu:  requested number of processors reduced to:  22 ShMem   1 Linda.
 PrRfSu:  requested number of processors reduced to:  16 ShMem   1 Linda.
 CalDSu:  requested number of processors reduced to:  22 ShMem   1 Linda.
     39 vectors produced by pass  1 Test12= 5.97D-11 2.22D-07 XBig12= 1.37D-02 2.96D-02.
 PrRfSu:  requested number of processors reduced to:  16 ShMem   1 Linda.
 CalDSu:  requested number of processors reduced to:  22 ShMem   1 Linda.
 PrRfSu:  requested number of processors reduced to:  16 ShMem   1 Linda.
 CalDSu:  requested number of processors reduced to:  22 ShMem   1 Linda.
     39 vectors produced by pass  2 Test12= 5.97D-11 2.22D-07 XBig12= 6.48D-05 1.46D-03.
 PrRfSu:  requested number of processors reduced to:  16 ShMem   1 Linda.
 CalDSu:  requested number of processors reduced to:  22 ShMem   1 Linda.
 PrRfSu:  requested number of processors reduced to:  16 ShMem   1 Linda.
 CalDSu:  requested number of processors reduced to:  22 ShMem   1 Linda.
     39 vectors produced by pass  3 Test12= 5.97D-11 2.22D-07 XBig12= 1.23D-07 6.93D-05.
 PrRfSu:  requested number of processors reduced to:  16 ShMem   1 Linda.
 CalDSu:  requested number of processors reduced to:  22 ShMem   1 Linda.
 PrRfSu:  requested number of processors reduced to:  16 ShMem   1 Linda.
 CalDSu:  requested number of processors reduced to:  22 ShMem   1 Linda.
     11 vectors produced by pass  4 Test12= 5.97D-11 2.22D-07 XBig12= 1.43D-10 1.81D-06.
 PrRfSu:  requested number of processors reduced to:  17 ShMem   1 Linda.
 Inverted reduced A of dimension   167 with in-core refinement.
 End of Minotr Frequency-dependent properties file   721 does not exist.
 End of Minotr Frequency-dependent properties file   722 does not exist.

 **********************************************************************

            Population analysis using the SCF density.

 **********************************************************************

 Orbital symmetries:
       Occupied  (A) (A) (A) (A) (A) (A) (A) (A) (A) (A) (A) (A)
                 (A) (A) (A) (A) (A) (A) (A) (A) (A)
       Virtual   (A) (A) (A) (A) (A) (A) (A) (A) (A) (A) (A) (A)
                 (A) (A) (A) (A) (A) (A) (A) (A) (A) (A) (A) (A)
                 (A) (A) (A) (A) (A) (A) (A) (A) (A) (A) (A) (A)
                 (A) (A) (A) (A) (A) (A) (A) (A) (A) (A) (A) (A)
                 (A) (A) (A) (A) (A) (A) (A) (A) (A) (A) (A) (A)
                 (A) (A) (A) (A) (A) (A) (A) (A) (A) (A) (A) (A)
                 (A) (A) (A) (A) (A) (A) (A) (A) (A) (A) (A) (A)
                 (A) (A) (A) (A) (A) (A) (A) (A) (A) (A) (A) (A)
                 (A) (A) (A) (A) (A) (A) (A) (A) (A) (A) (A) (A)
                 (A) (A) (A) (A) (A) (A) (A) (A) (A) (A) (A) (A)
                 (A) (A) (A) (A) (A) (A) (A) (A)
 The electronic state is 1-A.
 Alpha  occ. eigenvalues --  -19.42177 -19.37998 -10.48320 -10.47019 -10.35860
 Alpha  occ. eigenvalues --   -1.28481  -1.22964  -0.99301  -0.90393  -0.80493
 Alpha  occ. eigenvalues --   -0.76823  -0.74850  -0.67523  -0.65779  -0.61858
 Alpha  occ. eigenvalues --   -0.60546  -0.59053  -0.55888  -0.55164  -0.54092
 Alpha  occ. eigenvalues --   -0.51721
 Alpha virt. eigenvalues --   -0.23459  -0.18539  -0.15506  -0.13620  -0.13006
 Alpha virt. eigenvalues --   -0.10754  -0.10139  -0.08829  -0.08278  -0.06775
 Alpha virt. eigenvalues --   -0.06021  -0.04986  -0.04349  -0.03848  -0.02791
 Alpha virt. eigenvalues --   -0.02248  -0.01018   0.00025   0.00635   0.00893
 Alpha virt. eigenvalues --    0.02155   0.02936   0.03536   0.04247   0.04887
 Alpha virt. eigenvalues --    0.05247   0.06461   0.06723   0.07408   0.08388
 Alpha virt. eigenvalues --    0.08884   0.11809   0.12469   0.14953   0.15747
 Alpha virt. eigenvalues --    0.17187   0.17858   0.19409   0.20140   0.22263
 Alpha virt. eigenvalues --    0.23296   0.28040   0.43463   0.47661   0.49121
 Alpha virt. eigenvalues --    0.54662   0.58566   0.60192   0.61021   0.66884
 Alpha virt. eigenvalues --    0.70907   0.75220   0.76943   0.78493   0.80406
 Alpha virt. eigenvalues --    0.81984   0.82279   0.87054   0.90033   0.95772
 Alpha virt. eigenvalues --    0.96239   0.97449   0.99394   1.02415   1.04879
 Alpha virt. eigenvalues --    1.06549   1.06858   1.11072   1.13320   1.19436
 Alpha virt. eigenvalues --    1.30425   1.33185   1.35550   1.40300   1.41071
 Alpha virt. eigenvalues --    1.41805   1.47638   1.49493   1.59425   1.61997
 Alpha virt. eigenvalues --    1.65393   1.68154   1.79215   1.80954   1.84656
 Alpha virt. eigenvalues --    1.88391   1.90634   1.91617   1.96250   2.00067
 Alpha virt. eigenvalues --    2.05774   2.07557   2.11413   2.13207   2.19003
 Alpha virt. eigenvalues --    2.22198   2.28645   2.31263   2.33172   2.36206
 Alpha virt. eigenvalues --    2.38476   2.43874   2.45050   2.45823   2.50390
 Alpha virt. eigenvalues --    2.52061   2.54575   2.59554   2.64808   2.68256
 Alpha virt. eigenvalues --    2.69409   2.75863   2.81709   2.84672   3.09067
 Alpha virt. eigenvalues --    3.12664   3.17230   3.25152   3.26188   3.28626
 Alpha virt. eigenvalues --    3.30028   3.35563   3.36680   4.09646   4.15147
 Alpha virt. eigenvalues --    4.20872   4.34806   4.46120
          Condensed to atoms (all electrons):
              1          2          3          4          5          6
     1  C    5.831009  -0.070037  -0.005052   0.026230  -0.020865  -0.043136
     2  O   -0.070037   8.159304   0.000322   0.000473  -0.003053   0.000530
     3  H   -0.005052   0.000322   0.525375  -0.022190  -0.011505  -0.001137
     4  H    0.026230   0.000473  -0.022190   0.479077  -0.007963   0.000184
     5  H   -0.020865  -0.003053  -0.011505  -0.007963   0.588359  -0.008556
     6  H   -0.043136   0.000530  -0.001137   0.000184  -0.008556   0.345434
     7  H    0.314611  -0.020111   0.003845  -0.001792  -0.021447  -0.002990
     8  H   -0.013549   0.288076  -0.000289   0.000052  -0.000576  -0.000072
     9  H    0.013888   0.278183   0.000284  -0.000032  -0.000396   0.000082
    10  H    0.404580  -0.012566  -0.003097   0.001106   0.008990   0.001148
    11  C   -0.130561   0.020388   0.404837   0.401018  -0.053134   0.003975
    12  C   -0.127840  -0.024236  -0.048331  -0.057094   0.349145   0.033032
    13  O   -0.112099   0.021986   0.007314  -0.006340  -0.018980   0.238365
    14  H   -0.021336  -0.001097  -0.021944  -0.013016   0.007164   0.000417
              7          8          9         10         11         12
     1  C    0.314611  -0.013549   0.013888   0.404580  -0.130561  -0.127840
     2  O   -0.020111   0.288076   0.278183  -0.012566   0.020388  -0.024236
     3  H    0.003845  -0.000289   0.000284  -0.003097   0.404837  -0.048331
     4  H   -0.001792   0.000052  -0.000032   0.001106   0.401018  -0.057094
     5  H   -0.021447  -0.000576  -0.000396   0.008990  -0.053134   0.349145
     6  H   -0.002990  -0.000072   0.000082   0.001148   0.003975   0.033032
     7  H    0.528812   0.003832   0.000351  -0.027546   0.017506   0.008583
     8  H    0.003832   0.330498  -0.020518  -0.001684  -0.000522   0.015743
     9  H    0.000351  -0.020518   0.324787  -0.002658   0.003657  -0.012367
    10  H   -0.027546  -0.001684  -0.002658   0.393691   0.007495  -0.063303
    11  C    0.017506  -0.000522   0.003657   0.007495   5.758539  -0.415127
    12  C    0.008583   0.015743  -0.012367  -0.063303  -0.415127   6.360692
    13  O   -0.004429   0.000094  -0.000213  -0.006233  -0.005918   0.097617
    14  H   -0.000753   0.000269  -0.000076   0.006220   0.385507  -0.012550
             13         14
     1  C   -0.112099  -0.021336
     2  O    0.021986  -0.001097
     3  H    0.007314  -0.021944
     4  H   -0.006340  -0.013016
     5  H   -0.018980   0.007164
     6  H    0.238365   0.000417
     7  H   -0.004429  -0.000753
     8  H    0.000094   0.000269
     9  H   -0.000213  -0.000076
    10  H   -0.006233   0.006220
    11  C   -0.005918   0.385507
    12  C    0.097617  -0.012550
    13  O    8.122635   0.002591
    14  H    0.002591   0.453033
 Mulliken atomic charges:
              1
     1  C   -0.045844
     2  O   -0.638164
     3  H    0.171567
     4  H    0.200286
     5  H    0.192818
     6  H    0.432725
     7  H    0.201527
     8  H    0.398647
     9  H    0.415027
    10  H    0.293856
    11  C   -0.397662
    12  C   -0.103963
    13  O   -0.336390
    14  H    0.215570
 Sum of Mulliken atomic charges =   1.00000
 Mulliken charges with hydrogens summed into heavy atoms:
              1
     1  C    0.449539
     2  O    0.175510
    11  C    0.189762
    12  C    0.088855
    13  O    0.096334
 Sum of Mulliken charges with hydrogens summed into heavy atoms =   1.00000
 APT atomic charges:
              1
     1  C   -0.400642
     2  O   -1.356642
     3  H    0.411215
     4  H    0.567431
     5  H    0.443268
     6  H    0.766034
     7  H    0.507176
     8  H    0.616722
     9  H    0.872606
    10  H    0.492643
    11  C   -1.203578
    12  C   -0.395286
    13  O   -0.710004
    14  H    0.389059
 Sum of APT charges=   1.00000
 APT Atomic charges with hydrogens summed into heavy atoms:
              1
     1  C    0.599177
     2  O    0.132686
     3  H    0.000000
     4  H    0.000000
     5  H    0.000000
     6  H    0.000000
     7  H    0.000000
     8  H    0.000000
     9  H    0.000000
    10  H    0.000000
    11  C    0.164126
    12  C    0.047982
    13  O    0.056029
    14  H    0.000000
 Sum of APT charges=   1.00000
 Electronic spatial extent (au):  <R**2>=            547.0740
 Charge=              1.0000 electrons
 Dipole moment (field-independent basis, Debye):
    X=             -2.1246    Y=             -1.1950    Z=              2.0498  Tot=              3.1849
 Quadrupole moment (field-independent basis, Debye-Ang):
   XX=            -12.7729   YY=            -20.1960   ZZ=            -28.0296
   XY=             -1.2285   XZ=              0.0312   YZ=             -1.4952
 Traceless Quadrupole moment (field-independent basis, Debye-Ang):
   XX=              7.5599   YY=              0.1369   ZZ=             -7.6968
   XY=             -1.2285   XZ=              0.0312   YZ=             -1.4952
 Octapole moment (field-independent basis, Debye-Ang**2):
  XXX=            -43.6824  YYY=             -8.2137  ZZZ=             -0.9212  XYY=              0.0913
  XXY=             -4.3809  XXZ=             12.7019  XZZ=              0.1067  YZZ=             -2.1080
  YYZ=              4.7539  XYZ=             -6.1398
 Hexadecapole moment (field-independent basis, Debye-Ang**3):
 XXXX=           -223.1270 YYYY=           -170.3090 ZZZZ=            -52.8343 XXXY=             -9.2621
 XXXZ=            -15.9113 YYYX=            -22.8598 YYYZ=             -6.1844 ZZZX=              1.2553
 ZZZY=             -1.1263 XXYY=            -62.9136 XXZZ=            -74.9384 YYZZ=            -41.0101
 XXYZ=             -1.8402 YYXZ=              1.7367 ZZXY=             -2.6742
 N-N= 1.942203126660D+02 E-N=-1.010067472040D+03  KE= 2.673860190997D+02
  Exact polarizability:   0.000   0.000   0.000   0.000   0.000   0.000
 Approx polarizability:  76.556  -6.637  60.380  -0.589   1.186  52.029
 PrsmSu:  requested number of processors reduced to:  10 ShMem   1 Linda.
 PrsmSu:  requested number of processors reduced to:  10 ShMem   1 Linda.
 Calling FoFJK, ICntrl=    100147 FMM=F ISym2X=0 I1Cent= 0 IOpClX= 0 NMat=1 NMatS=1 NMatT=0.
 CoulSu:  requested number of processors reduced to:  10 ShMem   1 Linda.
 CalDSu:  requested number of processors reduced to:  23 ShMem   1 Linda.
 ***** Axes restored to original set *****
 -------------------------------------------------------------------
 Center     Atomic                   Forces (Hartrees/Bohr)
 Number     Number              X              Y              Z
 -------------------------------------------------------------------
      1        6          -0.001515079    0.002140439   -0.004515135
      2        8           0.001688509   -0.004079363    0.003787803
      3        1          -0.000128174    0.000628563    0.000099192
      4        1           0.000028159    0.000127183   -0.000033578
      5        1          -0.000213321   -0.000137742    0.000208258
      6        1           0.000431187    0.001875343    0.002028790
      7        1           0.000005238    0.000404850   -0.000143500
      8        1           0.000231688    0.001759987    0.001349700
      9        1          -0.000729985    0.001818232    0.001233568
     10        1          -0.000176734    0.000731472    0.000195370
     11        6          -0.000254389   -0.000152605    0.000148048
     12        6          -0.000565033    0.001691351    0.001456772
     13        8           0.000404928   -0.001817275   -0.006593686
     14        1           0.000222992   -0.000031727    0.000484647
 -------------------------------------------------------------------
 Cartesian Forces:  Max     0.006593686 RMS     0.001781068
 -----------------------------------------------------------------------------------------------
                       Internal Coordinate Forces (Hartree/Bohr or radian)
  Cent   Atom   N1       Length/X         N2         Alpha/Y        N3         Beta/Z          J
 -----------------------------------------------------------------------------------------------
      1  C 
      2  O        1   0.006371(     1)
      3  H        1  -0.000107(     2)      2  -0.000705(    14)
      4  H        1   0.000037(     3)      2   0.000146(    15)      3  -0.000784(    26)     0
      5  H        1  -0.000088(     4)      2  -0.000790(    16)      3   0.000999(    27)     0
      6  H        1  -0.002501(     5)      2   0.004658(    17)      3  -0.001001(    28)     0
      7  H        1  -0.000250(     6)      2   0.000280(    18)      3   0.000433(    29)     0
      8  H        2   0.000394(     7)      1   0.002471(    19)      7   0.003337(    30)     0
      9  H        2   0.000687(     8)      1   0.001883(    20)      7  -0.003113(    31)     0
     10  H        1   0.000764(     9)      2  -0.000239(    21)      8  -0.000172(    32)     0
     11  C        1  -0.000143(    10)      2  -0.004609(    22)      8  -0.000503(    33)     0
     12  C        1   0.001820(    11)      2   0.001920(    23)     11  -0.002584(    34)     0
     13  O       12   0.004429(    12)      1   0.013329(    24)      2  -0.005845(    35)     0
     14  H       11  -0.000085(    13)      1   0.000290(    25)     12   0.001049(    36)     0
 -----------------------------------------------------------------------------------------------
 Internal  Forces:  Max     0.013329193 RMS     0.003215661

 GradGradGradGradGradGradGradGradGradGradGradGradGradGradGradGradGradGrad
 Berny optimization.
 Search for a saddle point.
 Step number   1 out of a maximum of   46
 All quantities printed in internal units (Hartrees-Bohrs-Radians)
 Swaping is turned off.
 Second derivative matrix not updated -- analytic derivatives used.
 ITU=  0
     Eigenvalues ---   -0.01757  -0.00104   0.00460   0.00615   0.00935
     Eigenvalues ---    0.02054   0.02777   0.02940   0.04197   0.06026
     Eigenvalues ---    0.06989   0.10617   0.14199   0.15290   0.18414
     Eigenvalues ---    0.21330   0.25166   0.27933   0.33224   0.34393
     Eigenvalues ---    0.35734   0.38080   0.38213   0.41516   0.49676
     Eigenvalues ---    0.53160   0.53519   0.63692   0.91020   1.59437
     Eigenvalues ---    3.65270   4.28824   6.27778   7.59350  18.72553
     Eigenvalues ---   26.57228
 Eigenvectors required to have negative eigenvalues:
                          B1        B5        A11       A8        D6
   1                    0.70924  -0.39698  -0.30387  -0.25049  -0.18618
                          A5        D3        D11       A6        B12
   1                   -0.17973   0.17441   0.13155   0.12094   0.10758
 RFO step:  Lambda0=4.677659189D-04 Lambda=-2.43767533D-03.
 Linear search not attempted -- option 19 set.
 Maximum step size (   0.300) exceeded in Quadratic search.
    -- Step size scaled by   0.337
 Variable       Old X    -DE/DX   Delta X   Delta X   Delta X     New X
                                 (Linear)    (Quad)   (Total)
    B1        3.95739   0.00637   0.00000  -0.03968  -0.03968   3.91770
    B2        5.80263  -0.00011   0.00000  -0.01922  -0.01922   5.78342
    B3        6.54354   0.00004   0.00000  -0.00214  -0.00214   6.54140
    B4        4.11308  -0.00009   0.00000  -0.00321  -0.00321   4.10987
    B5        4.47216  -0.00250   0.00000   0.04559   0.04559   4.51775
    B6        2.04479  -0.00025   0.00000   0.00068   0.00068   2.04547
    B7        1.82920   0.00039   0.00000  -0.00053  -0.00053   1.82867
    B8        1.83054   0.00069   0.00000   0.00047   0.00047   1.83101
    B9        2.04243   0.00076   0.00000   0.00170   0.00170   2.04414
   B10        4.91103  -0.00014   0.00000  -0.00900  -0.00900   4.90203
   B11        2.78372   0.00182   0.00000   0.00113   0.00113   2.78485
   B12        2.80074   0.00443   0.00000  -0.00750  -0.00750   2.79324
   B13        2.06511  -0.00008   0.00000  -0.00003  -0.00003   2.06509
    A1        1.38264  -0.00070   0.00000  -0.02575  -0.02575   1.35689
    A2        1.91815   0.00015   0.00000  -0.02528  -0.02528   1.89287
    A3        1.83044  -0.00079   0.00000  -0.02153  -0.02153   1.80891
    A4        2.81152   0.00466   0.00000  -0.01779  -0.01779   2.79373
    A5        1.54360   0.00028   0.00000   0.02395   0.02395   1.56755
    A6        2.14192   0.00247   0.00000   0.04205   0.04205   2.18397
    A7        2.08863   0.00188   0.00000   0.01582   0.01582   2.10445
    A8        1.46705  -0.00024   0.00000   0.02895   0.02895   1.49599
    A9        1.72015  -0.00461   0.00000  -0.02347  -0.02347   1.69669
   A10        1.95274   0.00192   0.00000  -0.01593  -0.01593   1.93681
   A11        1.30515   0.01333   0.00000   0.03264   0.03264   1.33779
   A12        1.52429   0.00029   0.00000   0.00063   0.00063   1.52492
    D1        0.00854  -0.00078   0.00000   0.00129   0.00129   0.00982
    D2        0.85693   0.00100   0.00000  -0.00310  -0.00310   0.85383
    D3        1.42957  -0.00100   0.00000  -0.08995  -0.08995   1.33962
    D4        2.50067   0.00043   0.00000   0.00830   0.00830   2.50897
    D5        2.14327   0.00334   0.00000  -0.08767  -0.08767   2.05561
    D6       -0.30375  -0.00311   0.00000  -0.21008  -0.21008  -0.51383
    D7       -2.05246  -0.00017   0.00000  -0.09664  -0.09664  -2.14910
    D8       -0.45668  -0.00050   0.00000  -0.09462  -0.09462  -0.55129
    D9        0.47748  -0.00258   0.00000  -0.00150  -0.00150   0.47597
   D10       -3.03085  -0.00585   0.00000  -0.00149  -0.00149  -3.03235
   D11        2.57010   0.00105   0.00000  -0.01225  -0.01225   2.55785
         Item               Value     Threshold  Converged?
 Maximum Force            0.013329     0.000015     NO 
 RMS     Force            0.003216     0.000010     NO 
 Maximum Displacement     0.210082     0.000060     NO 
 RMS     Displacement     0.050000     0.000040     NO 
 Predicted change in Energy=-6.686944D-04
 GradGradGradGradGradGradGradGradGradGradGradGradGradGradGradGradGradGrad

 ---------------------------------------------------------------------------------------------------
                            Z-MATRIX (ANGSTROMS AND DEGREES)
   CD    Cent   Atom    N1       Length/X        N2       Alpha/Y        N3        Beta/Z          J
 ---------------------------------------------------------------------------------------------------
      1      1  C 
      2      2  O        1   2.073160(     1)
      3      3  H        1   3.060453(     2)      2   77.744(    14)
      4      4  H        1   3.461557(     3)      2  108.453(    15)      3    0.563(    26)      0
      5      5  H        1   2.174851(     4)      2  103.643(    16)      3   48.921(    27)      0
      6      6  H        1   2.390692(     5)      2  160.069(    17)      3   76.754(    28)      0
      7      7  H        1   1.082416(     6)      2   89.814(    18)      3  143.754(    29)      0
      8      8  H        2   0.967688(     7)      1  125.132(    19)      7  117.778(    30)      0
      9      9  H        2   0.968930(     8)      1  120.576(    20)      7  -29.441(    31)      0
     10     10  H        1   1.081710(     9)      2   85.714(    21)      8 -123.134(    32)      0
     11     11  C        1   2.594041(    10)      2   97.213(    22)      8  -31.587(    33)      0
     12     12  C        1   1.473680(    11)      2  110.971(    23)     11   27.271(    34)      0
     13     13  O       12   1.478117(    12)      1   76.650(    24)      2 -173.741(    35)      0
     14     14  H       11   1.092797(    13)      1   87.372(    25)     12  146.554(    36)      0
 ---------------------------------------------------------------------------------------------------
                         Z-Matrix orientation:                         
 ---------------------------------------------------------------------
 Center     Atomic      Atomic             Coordinates (Angstroms)
 Number     Number       Type             X           Y           Z
 ---------------------------------------------------------------------
      1          6           0        0.000000    0.000000    0.000000
      2          8           0        0.000000    0.000000    2.073160
      3          1           0        2.990701    0.000000    0.649676
      4          1           0        3.283411   -0.032251   -1.095696
      5          1           0        1.388776   -1.593151   -0.512977
      6          1           0        0.186727   -0.793279   -2.247499
      7          1           0       -0.872945   -0.639984    0.003516
      8          1           0        0.711453   -0.346632    2.630028
      9          1           0       -0.828326   -0.098857    2.566038
     10          1           0       -0.134412    1.070278    0.080840
     11          6           0        2.561183    0.251611   -0.325700
     12          6           0        1.278897   -0.507916   -0.527426
     13          8           0        0.565063   -0.055699   -1.740179
     14          1           0        2.397839    1.330900   -0.377262
 ---------------------------------------------------------------------
                    Distance matrix (angstroms):
                    1          2          3          4          5
     1  C    0.000000
     2  O    2.073160   0.000000
     3  H    3.060453   3.312190   0.000000
     4  H    3.461557   4.563275   1.770040   0.000000
     5  H    2.174851   3.339900   2.540877   2.523017   0.000000
     6  H    2.390692   4.396845   4.109158   3.390467   2.256830
     7  H    1.082416   2.335602   3.969239   4.341993   2.508122
     8  H    2.746519   0.967688   3.039230   4.538152   3.448341
     9  H    2.698230   0.968930   4.274013   5.506280   4.077842
    10  H    1.081710   2.265591   3.351925   3.779063   3.125152
    11  C    2.594041   3.518167   1.095058   1.093199   2.193800
    12  C    1.473680   2.942211   2.138649   2.137116   1.090879
    13  O    1.830471   3.855380   3.405618   2.793802   2.132671
    14  H    2.768258   3.677702   1.782521   1.777236   3.096240
                    6          7          8          9         10
     6  H    0.000000
     7  H    2.492684   0.000000
     8  H    4.925961   3.081385   0.000000
     9  H    4.968168   2.619413   1.560899   0.000000
    10  H    2.999522   1.864512   3.036689   2.832773   0.000000
    11  C    3.228490   3.563223   3.537757   4.469200   2.846352
    12  C    2.057405   2.220307   3.212090   3.765267   2.204115
    13  O    0.971871   2.334465   4.382326   4.526246   2.252376
    14  H    3.591509   3.837629   3.834293   4.595145   2.586517
                   11         12         13         14
    11  C    0.000000
    12  C    1.503939   0.000000
    13  O    2.465702   1.478117   0.000000
    14  H    1.092797   2.157736   2.671941   0.000000
 Stoichiometry    C3H9O2(1+)
 Framework group  C1[X(C3H9O2)]
 Deg. of freedom    36
 Full point group                 C1      NOp   1
 Largest Abelian subgroup         C1      NOp   1
 Largest concise Abelian subgroup C1      NOp   1
                         Standard orientation:                         
 ---------------------------------------------------------------------
 Center     Atomic      Atomic             Coordinates (Angstroms)
 Number     Number       Type             X           Y           Z
 ---------------------------------------------------------------------
      1          6           0       -0.389709   -0.744363   -0.165316
      2          8           0       -2.254162    0.150636   -0.021147
      3          1           0        0.333119    2.205181    0.214265
      4          1           0        2.031158    1.708699    0.157590
      5          1           0        0.700569    0.064981    1.533575
      6          1           0        1.724082   -1.651859    0.485641
      7          1           0       -0.765570   -1.605717    0.371732
      8          1           0       -2.439245    0.980589    0.440742
      9          1           0       -3.058082   -0.388776    0.018506
     10          1           0       -0.535917   -0.689266   -1.235683
     11          6           0        1.019110    1.433726   -0.151010
     12          6           0        0.650573    0.102793    0.444498
     13          8           0        1.423016   -0.998610   -0.167934
     14          1           0        0.979206    1.407023   -1.242751
 ---------------------------------------------------------------------
 Rotational constants (GHZ):      6.8364375      3.0142759      2.2707940
 Standard basis: 6-31++G(d,p) (6D, 7F)
 The following finite field(s) will be applied:
 An electric field of              0.0000  0.0000  0.0050
 There are   149 symmetry adapted basis functions of A   symmetry.
 Integral buffers will be    131072 words long.
 Raffenetti 2 integral format.
 Two-electron integral symmetry is turned on.
   149 basis functions,   232 primitive gaussians,   149 cartesian basis functions
    21 alpha electrons       21 beta electrons
       nuclear repulsion energy       194.3558487693 Hartrees.
 NAtoms=   14 NActive=   14 NUniq=   14 SFac= 1.00D+00 NAtFMM=   50 NAOKFM=F Big=F
 One-electron integrals computed using PRISM.
 PrsmSu:  requested number of processors reduced to:  10 ShMem   1 Linda.
 NBasis=   149 RedAO= T  NBF=   149
 NBsUse=   149 1.00D-06 NBFU=   149
 The nuclear repulsion energy is now       194.3558487693 hartrees.
 Initial guess read from the read-write file.
 B after Tr=     0.000000    0.000000    0.000000
         Rot=    1.000000    0.000000    0.000000    0.000000 Ang=   0.00 deg.
 Initial guess orbital symmetries:
       Occupied  (A) (A) (A) (A) (A) (A) (A) (A) (A) (A) (A) (A)
                 (A) (A) (A) (A) (A) (A) (A) (A) (A)
       Virtual   (A) (A) (A) (A) (A) (A) (A) (A) (A) (A) (A) (A)
                 (A) (A) (A) (A) (A) (A) (A) (A) (A) (A) (A) (A)
                 (A) (A) (A) (A) (A) (A) (A) (A) (A) (A) (A) (A)
                 (A) (A) (A) (A) (A) (A) (A) (A) (A) (A) (A) (A)
                 (A) (A) (A) (A) (A) (A) (A) (A) (A) (A) (A) (A)
                 (A) (A) (A) (A) (A) (A) (A) (A) (A) (A) (A) (A)
                 (A) (A) (A) (A) (A) (A) (A) (A) (A) (A) (A) (A)
                 (A) (A) (A) (A) (A) (A) (A) (A) (A) (A) (A) (A)
                 (A) (A) (A) (A) (A) (A) (A) (A) (A) (A) (A) (A)
                 (A) (A) (A) (A) (A) (A) (A) (A) (A) (A) (A) (A)
                 (A) (A) (A) (A) (A) (A) (A) (A)
 Harris functional with IExCor=  402 diagonalized for initial guess.
 ExpMin= 3.60D-02 ExpMax= 5.48D+03 ExpMxC= 8.25D+02 IAcc=3 IRadAn=         0 AccDes= 0.00D+00
 HarFok:  IExCor=  402 AccDes= 0.00D+00 IRadAn=         0 IDoV= 1
 ScaDFX=  1.000000  1.000000  1.000000  1.000000
 FoFCou: FMM=F IPFlag=           0 FMFlag=      100000 FMFlg1=           0
         NFxFlg=           0 DoJE=T BraDBF=F KetDBF=T FulRan=T
         Omega=  0.000000  0.000000  1.000000  0.000000  0.000000 ICntrl=     500 IOpCl=  0
         NMat0=    1 NMatS0=    1 NMatT0=    0 NMatD0=    1 NMtDS0=    0 NMtDT0=    0
         I1Cent=           4 NGrid=           0.
 Petite list used in FoFCou.
 Requested convergence on RMS density matrix=1.00D-08 within 128 cycles.
 Requested convergence on MAX density matrix=1.00D-06.
 Requested convergence on             energy=1.00D-06.
 No special actions if energy rises.
 SCF Done:  E(RB3LYP) =  -269.881504310     A.U. after   10 cycles
             Convg  =    0.8188D-08             -V/T =  2.0094
 PrsmSu:  requested number of processors reduced to:  10 ShMem   1 Linda.
 PrsmSu:  requested number of processors reduced to:  23 ShMem   1 Linda.
 Calling FoFJK, ICntrl=      2127 FMM=F ISym2X=0 I1Cent= 0 IOpClX= 0 NMat=1 NMatS=1 NMatT=0.
 CoulSu:  requested number of processors reduced to:  16 ShMem   1 Linda.
 ***** Axes restored to original set *****
 -------------------------------------------------------------------
 Center     Atomic                   Forces (Hartrees/Bohr)
 Number     Number              X              Y              Z
 -------------------------------------------------------------------
      1        6          -0.001352020    0.002609583   -0.003166293
      2        8           0.000658473   -0.003021906    0.003084948
      3        1          -0.000132652    0.000576874    0.000077403
      4        1           0.000007315    0.000073780   -0.000014207
      5        1          -0.000225645   -0.000163404    0.000129428
      6        1          -0.001130715   -0.001303515   -0.000305257
      7        1           0.000145239    0.000035997    0.000013870
      8        1           0.000692970    0.001167387    0.000619393
      9        1          -0.000659365    0.001833054    0.000514049
     10        1          -0.000124763    0.000527421    0.000156203
     11        6          -0.000166741   -0.000010180    0.000131447
     12        6          -0.000371288    0.001302888    0.000788398
     13        8           0.001950884    0.001345557   -0.002695084
     14        1           0.000149239   -0.000017073    0.000317996
 -------------------------------------------------------------------
 Cartesian Forces:  Max     0.003166293 RMS     0.001228677
 -----------------------------------------------------------------------------------------------
                       Internal Coordinate Forces (Hartree/Bohr or radian)
  Cent   Atom   N1       Length/X         N2         Alpha/Y        N3         Beta/Z          J
 -----------------------------------------------------------------------------------------------
      1  C 
      2  O        1   0.004218(     1)
      3  H        1  -0.000113(     2)      2  -0.000600(    14)
      4  H        1   0.000011(     3)      2   0.000075(    15)      3  -0.000458(    26)     0
      5  H        1  -0.000055(     4)      2  -0.000493(    16)      3   0.001108(    27)     0
      6  H        1   0.000631(     5)      2  -0.003819(    17)      3   0.002155(    28)     0
      7  H        1  -0.000138(     6)      2  -0.000029(    18)      3  -0.003277(    29)     0
      8  H        2   0.000448(     7)      1   0.000809(    19)      7   0.006154(    30)     0
      9  H        2   0.000638(     8)      1   0.000403(    20)      7  -0.002992(    31)     0
     10  H        1   0.000549(     9)      2  -0.000236(    21)      8  -0.000118(    32)     0
     11  C        1  -0.000076(    10)      2  -0.003187(    22)      8  -0.004012(    33)     0
     12  C        1   0.001140(    11)      2  -0.001512(    23)     11  -0.004950(    34)     0
     13  O       12   0.001681(    12)      1   0.007412(    24)      2   0.004718(    35)     0
     14  H       11  -0.000054(    13)      1   0.000214(    25)     12   0.000684(    36)     0
 -----------------------------------------------------------------------------------------------
 Internal  Forces:  Max     0.007412225 RMS     0.002548123

 GradGradGradGradGradGradGradGradGradGradGradGradGradGradGradGradGradGrad
 Berny optimization.
 Search for a saddle point.
 Step number   2 out of a maximum of   46
 All quantities printed in internal units (Hartrees-Bohrs-Radians)
 Swaping is turned off.
 Update second derivatives using D2CorN and points    1    2
 ITU=  0  0
     Eigenvalues ---   -0.01752  -0.00104   0.00492   0.00625   0.00936
     Eigenvalues ---    0.02053   0.02777   0.02939   0.04200   0.06027
     Eigenvalues ---    0.06989   0.10617   0.14200   0.15291   0.18413
     Eigenvalues ---    0.21328   0.25169   0.27932   0.33222   0.34393
     Eigenvalues ---    0.35734   0.38080   0.38214   0.41517   0.49675
     Eigenvalues ---    0.53160   0.53519   0.63691   0.91020   1.59437
     Eigenvalues ---    3.65270   4.28824   6.27782   7.59357  18.72553
     Eigenvalues ---   26.57229
 Eigenvectors required to have negative eigenvalues:
                          B1        B5        A11       A8        D6
   1                    0.70975  -0.39674  -0.30416  -0.24935  -0.19125
                          A5        D3        D11       A6        B12
   1                   -0.17944   0.16833   0.13171   0.12307   0.10765
 RFO step:  Lambda0=2.364659683D-04 Lambda=-1.60412952D-03.
 Linear search not attempted -- option 19 set.
 Maximum step size (   0.300) exceeded in Quadratic search.
    -- Step size scaled by   0.361
 Variable       Old X    -DE/DX   Delta X   Delta X   Delta X     New X
                                 (Linear)    (Quad)   (Total)
    B1        3.91770   0.00422   0.00000  -0.03966  -0.03966   3.87805
    B2        5.78342  -0.00011   0.00000  -0.02097  -0.02097   5.76245
    B3        6.54140   0.00001   0.00000   0.00015   0.00015   6.54154
    B4        4.10987  -0.00005   0.00000  -0.00218  -0.00218   4.10769
    B5        4.51775   0.00063   0.00000   0.03726   0.03726   4.55502
    B6        2.04547  -0.00014   0.00000   0.00051   0.00051   2.04598
    B7        1.82867   0.00045   0.00000  -0.00045  -0.00045   1.82822
    B8        1.83101   0.00064   0.00000   0.00051   0.00051   1.83152
    B9        2.04414   0.00055   0.00000   0.00117   0.00117   2.04530
   B10        4.90203  -0.00008   0.00000  -0.00732  -0.00732   4.89471
   B11        2.78485   0.00114   0.00000   0.00181   0.00181   2.78666
   B12        2.79324   0.00168   0.00000  -0.00678  -0.00678   2.78646
   B13        2.06509  -0.00005   0.00000  -0.00001  -0.00001   2.06508
    A1        1.35689  -0.00060   0.00000  -0.01495  -0.01495   1.34194
    A2        1.89287   0.00007   0.00000  -0.01456  -0.01456   1.87831
    A3        1.80891  -0.00049   0.00000  -0.00835  -0.00835   1.80056
    A4        2.79373  -0.00382   0.00000  -0.00803  -0.00803   2.78570
    A5        1.56755  -0.00003   0.00000   0.01867   0.01867   1.58622
    A6        2.18397   0.00081   0.00000   0.03464   0.03464   2.21861
    A7        2.10445   0.00040   0.00000   0.00688   0.00688   2.11133
    A8        1.49599  -0.00024   0.00000   0.02036   0.02036   1.51635
    A9        1.69669  -0.00319   0.00000  -0.01265  -0.01265   1.68404
   A10        1.93681  -0.00151   0.00000  -0.00388  -0.00388   1.93294
   A11        1.33779   0.00741   0.00000   0.02765   0.02765   1.36544
   A12        1.52492   0.00021   0.00000   0.00138   0.00138   1.52630
    D1        0.00982  -0.00046   0.00000   0.00019   0.00019   0.01001
    D2        0.85383   0.00111   0.00000  -0.00181  -0.00181   0.85202
    D3        1.33962   0.00215   0.00000  -0.04737  -0.04737   1.29225
    D4        2.50897  -0.00328   0.00000   0.00637   0.00637   2.51535
    D5        2.05561   0.00615   0.00000  -0.10634  -0.10634   1.94927
    D6       -0.51383  -0.00299   0.00000  -0.20981  -0.20981  -0.72364
    D7       -2.14910  -0.00012   0.00000  -0.11173  -0.11173  -2.26083
    D8       -0.55129  -0.00401   0.00000  -0.11242  -0.11242  -0.66371
    D9        0.47597  -0.00495   0.00000  -0.00130  -0.00130   0.47467
   D10       -3.03235   0.00472   0.00000   0.00197   0.00197  -3.03037
   D11        2.55785   0.00068   0.00000  -0.01504  -0.01504   2.54282
         Item               Value     Threshold  Converged?
 Maximum Force            0.007412     0.000015     NO 
 RMS     Force            0.002548     0.000010     NO 
 Maximum Displacement     0.209806     0.000060     NO 
 RMS     Displacement     0.050000     0.000040     NO 
 Predicted change in Energy=-4.716544D-04
 GradGradGradGradGradGradGradGradGradGradGradGradGradGradGradGradGradGrad

 ---------------------------------------------------------------------------------------------------
                            Z-MATRIX (ANGSTROMS AND DEGREES)
   CD    Cent   Atom    N1       Length/X        N2       Alpha/Y        N3        Beta/Z          J
 ---------------------------------------------------------------------------------------------------
      1      1  C 
      2      2  O        1   2.052176(     1)
      3      3  H        1   3.049357(     2)      2   76.887(    14)
      4      4  H        1   3.461635(     3)      2  107.619(    15)      3    0.574(    26)      0
      5      5  H        1   2.173698(     4)      2  103.164(    16)      3   48.817(    27)      0
      6      6  H        1   2.410411(     5)      2  159.609(    17)      3   74.040(    28)      0
      7      7  H        1   1.082685(     6)      2   90.884(    18)      3  144.119(    29)      0
      8      8  H        2   0.967452(     7)      1  127.117(    19)      7  111.685(    30)      0
      9      9  H        2   0.969200(     8)      1  120.970(    20)      7  -41.462(    31)      0
     10     10  H        1   1.082327(     9)      2   86.881(    21)      8 -129.536(    32)      0
     11     11  C        1   2.590168(    10)      2   96.488(    22)      8  -38.028(    33)      0
     12     12  C        1   1.474637(    11)      2  110.749(    23)     11   27.197(    34)      0
     13     13  O       12   1.474530(    12)      1   78.234(    24)      2 -173.628(    35)      0
     14     14  H       11   1.092792(    13)      1   87.451(    25)     12  145.693(    36)      0
 ---------------------------------------------------------------------------------------------------
                         Z-Matrix orientation:                         
 ---------------------------------------------------------------------
 Center     Atomic      Atomic             Coordinates (Angstroms)
 Number     Number       Type             X           Y           Z
 ---------------------------------------------------------------------
      1          6           0        0.000000    0.000000    0.000000
      2          8           0        0.000000    0.000000    2.052176
      3          1           0        2.969848    0.000000    0.691799
      4          1           0        3.299080   -0.033039   -1.047803
      5          1           0        1.393696   -1.592955   -0.495044
      6          1           0        0.230925   -0.807479   -2.259366
      7          1           0       -0.877124   -0.634492   -0.016700
      8          1           0        0.651114   -0.413752    2.635976
      9          1           0       -0.827087    0.080811    2.550920
     10          1           0       -0.133617    1.072431    0.058897
     11          6           0        2.561322    0.250869   -0.292685
     12          6           0        1.282132   -0.507704   -0.522428
     13          8           0        0.607134   -0.068091   -1.757482
     14          1           0        2.400176    1.330321   -0.347525
 ---------------------------------------------------------------------
                    Distance matrix (angstroms):
                    1          2          3          4          5
     1  C    0.000000
     2  O    2.052176   0.000000
     3  H    3.049357   3.266591   0.000000
     4  H    3.461635   4.527128   1.770791   0.000000
     5  H    2.173698   3.311831   2.535815   2.523761   0.000000
     6  H    2.410411   4.392578   4.106470   3.388395   2.254293
     7  H    1.082685   2.334989   3.962795   4.343455   2.510795
     8  H    2.746545   0.967452   3.054102   4.552679   3.427132
     9  H    2.682870   0.969200   4.228424   5.476223   4.124472
    10  H    1.082327   2.267405   3.343975   3.772302   3.121510
    11  C    2.590168   3.481619   1.095005   1.093204   2.191800
    12  C    1.474637   2.920652   2.140209   2.137617   1.091314
    13  O    1.860642   3.858333   3.403825   2.784142   2.130173
    14  H    2.766111   3.645430   1.781706   1.776843   3.095208
                    6          7          8          9         10
     6  H    0.000000
     7  H    2.507438   0.000000
     8  H    4.929092   3.069353   0.000000
     9  H    5.004727   2.665865   1.561059   0.000000
    10  H    3.006875   1.863359   3.076667   2.770269   0.000000
    11  C    3.227799   3.561312   3.559166   4.426773   2.839238
    12  C    2.052281   2.221311   3.222192   3.773674   2.199798
    13  O    0.969596   2.356725   4.407253   4.543290   2.269082
    14  H    3.595967   3.835444   3.873278   4.514142   2.579107
                   11         12         13         14
    11  C    0.000000
    12  C    1.504839   0.000000
    13  O    2.462968   1.474530   0.000000
    14  H    1.092792   2.158460   2.675544   0.000000
 Stoichiometry    C3H9O2(1+)
 Framework group  C1[X(C3H9O2)]
 Deg. of freedom    36
 Full point group                 C1      NOp   1
 Largest Abelian subgroup         C1      NOp   1
 Largest concise Abelian subgroup C1      NOp   1
                         Standard orientation:                         
 ---------------------------------------------------------------------
 Center     Atomic      Atomic             Coordinates (Angstroms)
 Number     Number       Type             X           Y           Z
 ---------------------------------------------------------------------
      1          6           0       -0.394759   -0.751211   -0.163396
      2          8           0       -2.238894    0.135334   -0.006463
      3          1           0        0.284973    2.197549    0.212585
      4          1           0        1.993195    1.735463    0.148116
      5          1           0        0.694653    0.069375    1.529171
      6          1           0        1.753903   -1.627212    0.489257
      7          1           0       -0.750637   -1.624344    0.368766
      8          1           0       -2.469403    0.914194    0.519091
      9          1           0       -3.051227   -0.376582   -0.138393
     10          1           0       -0.529012   -0.704214   -1.236335
     11          6           0        0.985309    1.440665   -0.155783
     12          6           0        0.647325    0.100459    0.439327
     13          8           0        1.452052   -0.977659   -0.164259
     14          1           0        0.941050    1.414886   -1.247373
 ---------------------------------------------------------------------
 Rotational constants (GHZ):      6.8737997      3.0259098      2.2820256
 Standard basis: 6-31++G(d,p) (6D, 7F)
 The following finite field(s) will be applied:
 An electric field of              0.0000  0.0000  0.0050
 There are   149 symmetry adapted basis functions of A   symmetry.
 Integral buffers will be    131072 words long.
 Raffenetti 2 integral format.
 Two-electron integral symmetry is turned on.
   149 basis functions,   232 primitive gaussians,   149 cartesian basis functions
    21 alpha electrons       21 beta electrons
       nuclear repulsion energy       194.4624128320 Hartrees.
 NAtoms=   14 NActive=   14 NUniq=   14 SFac= 1.00D+00 NAtFMM=   50 NAOKFM=F Big=F
 One-electron integrals computed using PRISM.
 PrsmSu:  requested number of processors reduced to:  10 ShMem   1 Linda.
 NBasis=   149 RedAO= T  NBF=   149
 NBsUse=   149 1.00D-06 NBFU=   149
 The nuclear repulsion energy is now       194.4624128320 hartrees.
 Initial guess read from the read-write file.
 B after Tr=     0.000000    0.000000    0.000000
         Rot=    1.000000    0.000000    0.000000    0.000000 Ang=   0.00 deg.
 Initial guess orbital symmetries:
       Occupied  (A) (A) (A) (A) (A) (A) (A) (A) (A) (A) (A) (A)
                 (A) (A) (A) (A) (A) (A) (A) (A) (A)
       Virtual   (A) (A) (A) (A) (A) (A) (A) (A) (A) (A) (A) (A)
                 (A) (A) (A) (A) (A) (A) (A) (A) (A) (A) (A) (A)
                 (A) (A) (A) (A) (A) (A) (A) (A) (A) (A) (A) (A)
                 (A) (A) (A) (A) (A) (A) (A) (A) (A) (A) (A) (A)
                 (A) (A) (A) (A) (A) (A) (A) (A) (A) (A) (A) (A)
                 (A) (A) (A) (A) (A) (A) (A) (A) (A) (A) (A) (A)
                 (A) (A) (A) (A) (A) (A) (A) (A) (A) (A) (A) (A)
                 (A) (A) (A) (A) (A) (A) (A) (A) (A) (A) (A) (A)
                 (A) (A) (A) (A) (A) (A) (A) (A) (A) (A) (A) (A)
                 (A) (A) (A) (A) (A) (A) (A) (A) (A) (A) (A) (A)
                 (A) (A) (A) (A) (A) (A) (A) (A)
 Harris functional with IExCor=  402 diagonalized for initial guess.
 ExpMin= 3.60D-02 ExpMax= 5.48D+03 ExpMxC= 8.25D+02 IAcc=3 IRadAn=         0 AccDes= 0.00D+00
 HarFok:  IExCor=  402 AccDes= 0.00D+00 IRadAn=         0 IDoV= 1
 ScaDFX=  1.000000  1.000000  1.000000  1.000000
 FoFCou: FMM=F IPFlag=           0 FMFlag=      100000 FMFlg1=           0
         NFxFlg=           0 DoJE=T BraDBF=F KetDBF=T FulRan=T
         Omega=  0.000000  0.000000  1.000000  0.000000  0.000000 ICntrl=     500 IOpCl=  0
         NMat0=    1 NMatS0=    1 NMatT0=    0 NMatD0=    1 NMtDS0=    0 NMtDT0=    0
         I1Cent=           4 NGrid=           0.
 Petite list used in FoFCou.
 Requested convergence on RMS density matrix=1.00D-08 within 128 cycles.
 Requested convergence on MAX density matrix=1.00D-06.
 Requested convergence on             energy=1.00D-06.
 No special actions if energy rises.
 SCF Done:  E(RB3LYP) =  -269.881948534     A.U. after   10 cycles
             Convg  =    0.6789D-08             -V/T =  2.0094
 PrsmSu:  requested number of processors reduced to:  10 ShMem   1 Linda.
 PrsmSu:  requested number of processors reduced to:  23 ShMem   1 Linda.
 Calling FoFJK, ICntrl=      2127 FMM=F ISym2X=0 I1Cent= 0 IOpClX= 0 NMat=1 NMatS=1 NMatT=0.
 CoulSu:  requested number of processors reduced to:  16 ShMem   1 Linda.
 ***** Axes restored to original set *****
 -------------------------------------------------------------------
 Center     Atomic                   Forces (Hartrees/Bohr)
 Number     Number              X              Y              Z
 -------------------------------------------------------------------
      1        6          -0.001553377    0.003240882   -0.002229643
      2        8           0.000001865   -0.002252163    0.002943131
      3        1          -0.000165816    0.000554812    0.000036244
      4        1          -0.000031228    0.000035828    0.000004722
      5        1          -0.000224544   -0.000100448    0.000063971
      6        1          -0.001569735   -0.002835788   -0.001311230
      7        1           0.000184440   -0.000181105    0.000241437
      8        1           0.001342494    0.000442867   -0.000113961
      9        1          -0.000832289    0.002014462   -0.000270641
     10        1          -0.000159413    0.000404105    0.000195666
     11        6          -0.000130268    0.000029879    0.000078219
     12        6          -0.000004321    0.000782101    0.000405325
     13        8           0.002491667    0.002822634   -0.000631582
     14        1           0.000106595   -0.000002468    0.000205986
 -------------------------------------------------------------------
 Cartesian Forces:  Max     0.003240882 RMS     0.001261767
 -----------------------------------------------------------------------------------------------
                       Internal Coordinate Forces (Hartree/Bohr or radian)
  Cent   Atom   N1       Length/X         N2         Alpha/Y        N3         Beta/Z          J
 -----------------------------------------------------------------------------------------------
      1  C 
      2  O        1   0.002559(     1)
      3  H        1  -0.000153(     2)      2  -0.000420(    14)
      4  H        1  -0.000032(     3)      2   0.000033(    15)      3  -0.000221(    26)     0
      5  H        1  -0.000085(     4)      2  -0.000188(    16)      3   0.000940(    27)     0
      6  H        1   0.002029(     5)      2  -0.007717(    17)      3   0.003633(    28)     0
      7  H        1  -0.000047(     6)      2  -0.000493(    18)      3  -0.004693(    29)     0
      8  H        2   0.000645(     7)      1  -0.001154(    19)      7   0.007193(    30)     0
      9  H        2   0.000739(     8)      1  -0.001390(    20)      7  -0.003021(    31)     0
     10  H        1   0.000431(     9)      2  -0.000353(    21)      8  -0.000221(    32)     0
     11  C        1  -0.000053(    10)      2  -0.002021(    22)      8  -0.005377(    33)     0
     12  C        1   0.001002(    11)      2  -0.003497(    23)     11  -0.005796(    34)     0
     13  O       12   0.000230(    12)      1   0.004170(    24)      2   0.009560(    35)     0
     14  H       11  -0.000028(    13)      1   0.000167(    25)     12   0.000445(    36)     0
 -----------------------------------------------------------------------------------------------
 Internal  Forces:  Max     0.009560008 RMS     0.003167518

 GradGradGradGradGradGradGradGradGradGradGradGradGradGradGradGradGradGrad
 Berny optimization.
 Search for a saddle point.
 Step number   3 out of a maximum of   46
 All quantities printed in internal units (Hartrees-Bohrs-Radians)
 Swaping is turned off.
 Update second derivatives using D2CorN and points    1    2    3
 ITU=  0  0  0
     Eigenvalues ---   -0.01760  -0.00133   0.00514   0.00650   0.00938
     Eigenvalues ---    0.02053   0.02778   0.02938   0.04203   0.06027
     Eigenvalues ---    0.06989   0.10618   0.14200   0.15292   0.18412
     Eigenvalues ---    0.21327   0.25176   0.27931   0.33219   0.34393
     Eigenvalues ---    0.35735   0.38080   0.38214   0.41518   0.49673
     Eigenvalues ---    0.53161   0.53520   0.63687   0.91020   1.59437
     Eigenvalues ---    3.65270   4.28824   6.27786   7.59362  18.72553
     Eigenvalues ---   26.57229
 Eigenvectors required to have negative eigenvalues:
                          B1        B5        A11       A8        A5
   1                    0.71124  -0.39681  -0.30501  -0.24894  -0.17947
                          D6        D3        D11       A6        B12
   1                   -0.17922   0.16560   0.13236   0.12399   0.10769
 RFO step:  Lambda0=7.362877799D-05 Lambda=-1.89013533D-03.
 Linear search not attempted -- option 19 set.
 Maximum step size (   0.300) exceeded in Quadratic search.
    -- Step size scaled by   0.384
 Variable       Old X    -DE/DX   Delta X   Delta X   Delta X     New X
                                 (Linear)    (Quad)   (Total)
    B1        3.87805   0.00256   0.00000  -0.02808  -0.02808   3.84997
    B2        5.76245  -0.00015   0.00000  -0.02119  -0.02119   5.74126
    B3        6.54154  -0.00003   0.00000   0.00136   0.00136   6.54290
    B4        4.10769  -0.00008   0.00000  -0.00107  -0.00107   4.10662
    B5        4.55502   0.00203   0.00000   0.01925   0.01925   4.57427
    B6        2.04598  -0.00005   0.00000   0.00031   0.00031   2.04629
    B7        1.82822   0.00065   0.00000  -0.00022  -0.00022   1.82800
    B8        1.83152   0.00074   0.00000   0.00063   0.00063   1.83216
    B9        2.04530   0.00043   0.00000   0.00080   0.00080   2.04610
   B10        4.89471  -0.00005   0.00000  -0.00568  -0.00568   4.88902
   B11        2.78666   0.00100   0.00000   0.00187   0.00187   2.78853
   B12        2.78646   0.00023   0.00000  -0.00412  -0.00412   2.78234
   B13        2.06508  -0.00003   0.00000   0.00001   0.00001   2.06508
    A1        1.34194  -0.00042   0.00000  -0.00428  -0.00428   1.33766
    A2        1.87831   0.00003   0.00000  -0.00390  -0.00390   1.87441
    A3        1.80056  -0.00019   0.00000   0.00295   0.00295   1.80350
    A4        2.78570  -0.00772   0.00000  -0.00009  -0.00009   2.78561
    A5        1.58622  -0.00049   0.00000   0.00972   0.00972   1.59594
    A6        2.21861  -0.00115   0.00000   0.01995   0.01995   2.23855
    A7        2.11133  -0.00139   0.00000  -0.00643  -0.00643   2.10490
    A8        1.51635  -0.00035   0.00000   0.00927   0.00927   1.52562
    A9        1.68404  -0.00202   0.00000  -0.00201  -0.00201   1.68203
   A10        1.93294  -0.00350   0.00000   0.00596   0.00596   1.93890
   A11        1.36544   0.00417   0.00000   0.01949   0.01949   1.38492
   A12        1.52630   0.00017   0.00000   0.00187   0.00187   1.52817
    D1        0.01001  -0.00022   0.00000  -0.00004  -0.00004   0.00998
    D2        0.85202   0.00094   0.00000   0.00001   0.00001   0.85202
    D3        1.29225   0.00363   0.00000   0.00094   0.00094   1.29319
    D4        2.51535  -0.00469   0.00000   0.00524   0.00524   2.52059
    D5        1.94927   0.00719   0.00000  -0.12455  -0.12455   1.82472
    D6       -0.72364  -0.00302   0.00000  -0.19652  -0.19652  -0.92016
    D7       -2.26083  -0.00022   0.00000  -0.12634  -0.12634  -2.38717
    D8       -0.66371  -0.00538   0.00000  -0.12999  -0.12999  -0.79370
    D9        0.47467  -0.00580   0.00000  -0.00064  -0.00064   0.47403
   D10       -3.03037   0.00956   0.00000   0.00350   0.00350  -3.02688
   D11        2.54282   0.00044   0.00000  -0.01474  -0.01474   2.52807
         Item               Value     Threshold  Converged?
 Maximum Force            0.009560     0.000015     NO 
 RMS     Force            0.003168     0.000010     NO 
 Maximum Displacement     0.196515     0.000060     NO 
 RMS     Displacement     0.050000     0.000040     NO 
 Predicted change in Energy=-4.724263D-04
 GradGradGradGradGradGradGradGradGradGradGradGradGradGradGradGradGradGrad

 ---------------------------------------------------------------------------------------------------
                            Z-MATRIX (ANGSTROMS AND DEGREES)
   CD    Cent   Atom    N1       Length/X        N2       Alpha/Y        N3        Beta/Z          J
 ---------------------------------------------------------------------------------------------------
      1      1  C 
      2      2  O        1   2.037315(     1)
      3      3  H        1   3.038143(     2)      2   76.642(    14)
      4      4  H        1   3.462356(     3)      2  107.396(    15)      3    0.572(    26)      0
      5      5  H        1   2.173132(     4)      2  103.333(    16)      3   48.817(    27)      0
      6      6  H        1   2.420600(     5)      2  159.604(    17)      3   74.094(    28)      0
      7      7  H        1   1.082849(     6)      2   91.441(    18)      3  144.419(    29)      0
      8      8  H        2   0.967334(     7)      1  128.260(    19)      7  104.549(    30)      0
      9      9  H        2   0.969535(     8)      1  120.602(    20)      7  -52.721(    31)      0
     10     10  H        1   1.082752(     9)      2   87.412(    21)      8 -136.775(    32)      0
     11     11  C        1   2.587160(    10)      2   96.373(    22)      8  -45.476(    33)      0
     12     12  C        1   1.475626(    11)      2  111.091(    23)     11   27.160(    34)      0
     13     13  O       12   1.472353(    12)      1   79.350(    24)      2 -173.427(    35)      0
     14     14  H       11   1.092796(    13)      1   87.558(    25)     12  144.848(    36)      0
 ---------------------------------------------------------------------------------------------------
                         Z-Matrix orientation:                         
 ---------------------------------------------------------------------
 Center     Atomic      Atomic             Coordinates (Angstroms)
 Number     Number       Type             X           Y           Z
 ---------------------------------------------------------------------
      1          6           0        0.000000    0.000000    0.000000
      2          8           0        0.000000    0.000000    2.037315
      3          1           0        2.955949    0.000000    0.701909
      4          1           0        3.303836   -0.032958   -1.035127
      5          1           0        1.392357   -1.591442   -0.501153
      6          1           0        0.231196   -0.811308   -2.268840
      7          1           0       -0.880396   -0.629860   -0.027227
      8          1           0        0.582962   -0.486920    2.636314
      9          1           0       -0.797441    0.245936    2.530875
     10          1           0       -0.130031    1.073803    0.048893
     11          6           0        2.558876    0.251148   -0.287185
     12          6           0        1.280497   -0.505813   -0.530993
     13          8           0        0.624140   -0.068459   -1.774271
     14          1           0        2.399574    1.330834   -0.342892
 ---------------------------------------------------------------------
                    Distance matrix (angstroms):
                    1          2          3          4          5
     1  C    0.000000
     2  O    2.037315   0.000000
     3  H    3.038143   3.243601   0.000000
     4  H    3.462356   4.511798   1.771837   0.000000
     5  H    2.173132   3.303811   2.534731   2.523441   0.000000
     6  H    2.420600   4.388011   4.111916   3.401323   2.254246
     7  H    1.082849   2.331127   3.955491   4.345107   2.512898
[...]
    B5        4.49104   0.00000   0.00000   0.00000   0.00000   4.49104
    B6        2.04660   0.00000   0.00000   0.00000   0.00000   2.04660
    B7        1.83451   0.00000   0.00000   0.00000   0.00000   1.83451
    B8        1.83519   0.00000   0.00000   0.00000   0.00000   1.83519
    B9        2.04710   0.00000   0.00000   0.00000   0.00000   2.04710
   B10        4.89324   0.00000   0.00000   0.00000   0.00000   4.89323
   B11        2.77554   0.00000   0.00000   0.00000   0.00000   2.77554
   B12        2.80505   0.00000   0.00000   0.00000   0.00000   2.80504
   B13        2.06560   0.00000   0.00000   0.00000   0.00000   2.06560
    A1        1.29569   0.00000   0.00000   0.00000   0.00000   1.29569
    A2        1.83150   0.00000   0.00000   0.00000   0.00000   1.83150
    A3        1.70902   0.00000   0.00000   0.00000   0.00000   1.70902
    A4        2.70319   0.00000   0.00000   0.00000   0.00000   2.70319
    A5        1.54594   0.00000   0.00000   0.00000   0.00000   1.54595
    A6        2.02242   0.00000   0.00000   0.00000   0.00000   2.02242
    A7        2.00389   0.00000   0.00000  -0.00001  -0.00001   2.00388
    A8        1.57534   0.00000   0.00000   0.00001   0.00001   1.57535
    A9        1.64045   0.00000   0.00000   0.00000   0.00000   1.64045
   A10        1.85234   0.00000   0.00000   0.00001   0.00001   1.85234
   A11        1.34250   0.00000   0.00000   0.00001   0.00001   1.34252
   A12        1.52710   0.00000   0.00000   0.00000   0.00000   1.52710
    D1        0.03617   0.00000   0.00000   0.00000   0.00000   0.03617
    D2        0.86429   0.00000   0.00000   0.00000   0.00000   0.86429
    D3        1.28634   0.00000   0.00000   0.00002   0.00002   1.28636
    D4        2.51351   0.00000   0.00000   0.00000   0.00000   2.51351
    D5       -0.68427   0.00000   0.00000  -0.00002  -0.00002  -0.68428
    D6       -2.84140   0.00000   0.00000  -0.00001  -0.00001  -2.84141
    D7       -4.89820   0.00000   0.00000  -0.00002  -0.00002  -4.89822
    D8       -3.27896   0.00000   0.00000  -0.00002  -0.00002  -3.27898
    D9        0.48256   0.00000   0.00000   0.00000   0.00000   0.48256
   D10       -3.08528   0.00000   0.00000   0.00000   0.00000  -3.08528
   D11        2.57489   0.00000   0.00000  -0.00001  -0.00001   2.57489
         Item               Value     Threshold  Converged?
 Maximum Force            0.000004     0.000015     YES
 RMS     Force            0.000001     0.000010     YES
 Maximum Displacement     0.000024     0.000060     YES
 RMS     Displacement     0.000008     0.000040     YES
 Predicted change in Energy=-5.608548D-12
 Optimization completed.
    -- Stationary point found.
                       ----------------------------
                       !   Optimized Parameters   !
                       ! (Angstroms and Degrees)  !
 ----------------------                            ----------------------
 !      Name          Value   Derivative information (Atomic Units)     !
 ------------------------------------------------------------------------
 !       B1          2.1369   -DE/DX =    0.0                           !
 !       B2          3.0562   -DE/DX =    0.0                           !
 !       B3          3.4558   -DE/DX =    0.0                           !
 !       B4          2.1664   -DE/DX =    0.0                           !
 !       B5          2.3766   -DE/DX =    0.0                           !
 !       B6          1.083    -DE/DX =    0.0                           !
 !       B7          0.9708   -DE/DX =    0.0                           !
 !       B8          0.9711   -DE/DX =    0.0                           !
 !       B9          1.0833   -DE/DX =    0.0                           !
 !       B10         2.5894   -DE/DX =    0.0                           !
 !       B11         1.4688   -DE/DX =    0.0                           !
 !       B12         1.4844   -DE/DX =    0.0                           !
 !       B13         1.0931   -DE/DX =    0.0                           !
 !       A1         74.2374   -DE/DX =    0.0                           !
 !       A2        104.9371   -DE/DX =    0.0                           !
 !       A3         97.9195   -DE/DX =    0.0                           !
 !       A4        154.8814   -DE/DX =    0.0                           !
 !       A5         88.576    -DE/DX =    0.0                           !
 !       A6        115.8764   -DE/DX =    0.0                           !
 !       A7        114.8142   -DE/DX =    0.0                           !
 !       A8         90.2603   -DE/DX =    0.0                           !
 !       A9         93.9907   -DE/DX =    0.0                           !
 !       A10       106.1312   -DE/DX =    0.0                           !
 !       A11        76.9197   -DE/DX =    0.0                           !
 !       A12        87.4965   -DE/DX =    0.0                           !
 !       D1          2.0722   -DE/DX =    0.0                           !
 !       D2         49.5202   -DE/DX =    0.0                           !
 !       D3         73.7019   -DE/DX =    0.0                           !
 !       D4        144.0136   -DE/DX =    0.0                           !
 !       D5        -39.2055   -DE/DX =    0.0                           !
 !       D6       -162.8002   -DE/DX =    0.0                           !
 !       D7       -280.6462   -DE/DX =    0.0                           !
 !       D8       -187.8705   -DE/DX =    0.0                           !
 !       D9         27.6488   -DE/DX =    0.0                           !
 !       D10      -176.7734   -DE/DX =    0.0                           !
 !       D11       147.5305   -DE/DX =    0.0                           !
 ------------------------------------------------------------------------
 GradGradGradGradGradGradGradGradGradGradGradGradGradGradGradGradGradGrad

 1\1\GINC-C36N13\Freq\RB3LYP\6-31++G(d,p)\C3H9O2(1+)\ROOT\26-Apr-2018\1
 \\#N Geom=AllCheck Guess=TCheck SCRF=Check GenChk RB3LYP/6-31++G(d,p) 
 Freq\\H3O-BACK-TERM\\1,1\C\O,1,B1\H,1,B2,2,A1\H,1,B3,2,A2,3,D1,0\H,1,B
 4,2,A3,3,D2,0\H,1,B5,2,A4,3,D3,0\H,1,B6,2,A5,3,D4,0\H,2,B7,1,A6,7,D5,0
 \H,2,B8,1,A7,7,D6,0\H,1,B9,2,A8,8,D7,0\C,1,B10,2,A9,8,D8,0\C,1,B11,2,A
 10,11,D9,0\O,12,B12,1,A11,2,D10,0\H,11,B13,1,A12,12,D11,0\\B1=2.136877
 65\B2=3.05616345\B3=3.45581668\B4=2.1663502\B5=2.37655385\B6=1.0830126
 6\B7=0.9707818\B8=0.97114121\B9=1.08328032\B10=2.58939055\B11=1.468753
 13\B12=1.48436749\B13=1.09306634\A1=74.23740232\A2=104.93712069\A3=97.
 91954624\A4=154.88136641\A5=88.57603474\A6=115.87635836\A7=114.8141783
 8\A8=90.26032432\A9=93.9906748\A10=106.13121251\A11=76.91969673\A12=87
 .49653331\D1=2.07223679\D2=49.52017597\D3=73.70194082\D4=144.01360778\
 D5=-39.20549835\D6=-162.80023285\D7=-280.64621517\D8=-187.87052033\D9=
 27.64878917\D10=-176.77338828\D11=147.53050146\\Version=EM64L-G09RevB.
 01\State=1-A\HF=-269.8867955\RMSD=4.933e-09\RMSF=6.095e-04\ZeroPoint=0
 .1218483\Thermal=0.1290966\Dipole=-0.9572421,0.0374428,0.5573147\Dipol
 eDeriv=0.2046967,-0.0126373,-0.1733258,-0.0460641,0.1981563,0.1562543,
 -0.4485121,0.1988003,1.9452634,-0.4885016,0.0048222,0.0571166,0.015003
 4,-0.4680147,-0.0279544,0.1237434,0.0051661,-1.087749,0.0800403,-0.013
 3464,-0.0016776,-0.0247959,0.0802657,0.0469421,-0.0325408,0.0355994,-0
 .0236478,0.0406166,0.0060915,0.0180112,0.0048827,0.0659839,-0.0600957,
 0.0599106,-0.0413009,0.0443385,0.0235486,-0.0249004,-0.0151818,-0.0087
 135,-0.0453772,0.0104091,-0.034704,-0.0126332,0.0490491,0.2732881,-0.0
 02747,0.1115719,-0.0189806,0.2632624,0.1206548,0.0141717,0.0456805,0.3
 696853,0.0661888,-0.0069406,0.0157536,-0.0123083,0.0821936,-0.009381,0
 .0223831,-0.0211487,0.0090923,0.340906,0.0022258,-0.0954148,0.0198118,
 0.3409019,-0.0547023,0.0041145,-0.0434703,0.2667142,0.3200129,-0.00415
 99,0.071387,-0.0225366,0.3081939,0.0465196,0.0259745,-0.0143778,0.2842
 814,0.0992362,-0.0329723,0.0155691,-0.0116397,0.1281578,-0.0152649,0.0
 255803,-0.0025186,0.0067614,-0.0988677,-0.0333395,-0.0448832,-0.023988
 6,-0.0051352,-0.0233093,-0.0096014,-0.007517,0.0275823,0.639547,0.0031
 693,-0.0462998,0.0224053,0.2863734,0.0821239,0.3260369,-0.024642,0.373
 1741,-0.5457975,0.053359,0.1018937,0.0882297,-0.2370334,-0.2731255,-0.
 0710586,-0.1271134,-1.3641314,0.0450857,0.0613755,-0.0145199,0.0186946
 ,0.0020716,0.0009295,-0.0054981,0.0094757,0.0995864\Polar=46.774103,0.
 4071787,38.5634038,-3.6916654,3.4753012,57.0983093\PG=C01 [X(C3H9O2)]\
 NImag=1\\0.63586798,0.04198893,0.69421143,-0.05096088,0.01661482,0.031
 50540,-0.02250214,-0.00318603,-0.00498956,0.60481461,-0.00522486,-0.01
 489119,0.00770812,0.17938369,0.31246630,-0.00524138,0.01004977,0.02295
 280,-0.09122561,0.18365502,0.26280948,0.00108331,0.00074766,-0.0021388
 7,0.00050918,0.00013700,0.00046958,0.08128382,0.00064584,0.00045093,-0
 .00033349,-0.00020155,-0.00012062,0.00020596,-0.01632984,0.05713142,-0
 .00054441,-0.00029486,-0.00041131,0.00027596,0.00002216,0.00003833,0.0
 9181844,-0.05190161,0.29720589,-0.00324628,-0.00469838,0.00057369,0.00
 020831,0.00005987,0.00000676,0.00954089,-0.00398435,-0.00786557,0.1935
 2006,-0.00235737,-0.00227327,-0.00105809,0.00009639,0.00014319,0.00009
 811,-0.00477964,0.00095088,0.00427979,-0.06065411,0.07622662,-0.002635
 59,-0.00107550,0.00025648,0.00029234,0.00005966,-0.00001619,0.02101673
 ,-0.00920945,-0.01783734,-0.13482202,0.06095696,0.17238175,-0.00309904
 ,0.02819044,-0.00203860,0.00005655,-0.00026864,0.00046016,0.00086908,0
 .00074118,-0.00024281,0.00089594,0.00063534,0.00046366,0.06222763,0.00
 011321,-0.00833902,0.00090424,-0.00001127,0.00025600,-0.00029232,-0.00
 011942,0.00032031,-0.00027298,-0.00006902,0.00066341,0.00024165,-0.024
 58314,0.34387831,0.00009599,-0.02063367,-0.00086968,-0.00012658,0.0004
 9754,0.00048442,0.00040606,0.00030266,0.00052819,-0.00048113,0.0004501
 1,0.00018888,0.00704674,-0.02714293,0.05483789,0.00766612,0.00881592,-
 0.00534316,-0.00094709,-0.00036726,0.00292655,-0.00148754,-0.00064697,
 -0.00009158,-0.00000781,0.00000478,0.00004004,0.00151764,0.00055370,0.
 00068664,0.09232073,0.00229089,-0.00388648,-0.00249761,-0.00035266,0.0
 0020133,0.00155810,0.00067784,0.00065417,0.00025473,0.00009546,0.00009
 930,-0.00014907,0.00129824,0.00097929,0.00133733,0.14810700,0.33278633
 ,-0.00788720,-0.00568894,-0.00707743,0.00105591,0.00052688,0.00007507,
 -0.00042413,-0.00053444,0.00040214,0.00027254,0.00002918,0.00026606,-0
 .00061437,0.00072750,0.00268028,0.09456242,0.16855649,0.13777892,-0.25
 417794,-0.14871388,0.01279023,0.00150883,0.00120209,0.00082762,0.00004
 189,0.00003136,-0.00008299,-0.00102003,-0.00071689,-0.00061760,0.00107
 907,0.00002322,-0.00048304,-0.00021584,0.00001685,0.00139321,0.2590577
 1,-0.15115011,-0.16979374,0.00134834,0.00142410,0.00056495,0.00095555,
 -0.00021119,-0.00000461,0.00005642,0.00066381,0.00063202,0.00009234,-0
 .00020830,0.00079301,0.00106232,-0.00007503,0.00108997,-0.00026795,0.1
 5464341,0.16448180,-0.00027943,0.00375489,-0.03182928,-0.00597251,-0.0
 0561679,-0.00905835,-0.00005216,0.00000784,0.00003442,-0.00019865,0.00
 017929,0.00021409,0.00034897,0.00014207,0.00007707,0.00008013,0.000540
 42,0.00091495,-0.01228744,-0.00098885,0.04226270,0.00196712,0.00137596
 ,0.01006650,-0.41435196,-0.00650973,0.16831029,-0.00000488,0.00002627,
 0.00004466,0.00002195,0.00000055,-0.00001664,0.00005866,-0.00000221,0.
 00004059,0.00045903,0.00019441,-0.00005908,0.00039807,-0.00019542,-0.0
 0066405,0.43297285,0.00072893,-0.00089349,0.00124610,0.03544224,-0.028
 76541,-0.04023196,-0.00008335,-0.00002778,0.00001051,0.00000498,0.0000
 1830,-0.00002802,0.00008522,0.00001028,-0.00002672,0.00005930,0.000138
 13,0.00000995,-0.00004285,0.00033307,-0.00093185,-0.00161455,0.0281683
 2,0.00691980,-0.00039473,0.00578610,0.20091617,-0.02216431,-0.12314574
 ,0.00013404,-0.00001949,-0.00004531,-0.00002172,-0.00000868,0.00001867
 ,0.00001235,-0.00003727,0.00010353,0.00041803,0.00011602,-0.00039014,-
 0.00014446,-0.00081908,-0.00095951,-0.18686044,0.02506159,0.11543748,0
 .00105480,0.00010065,-0.00764769,-0.17569010,-0.16910138,-0.07379459,-
 0.00071716,0.00040459,0.00001874,-0.00024660,-0.00014747,-0.00030383,-
 0.00011030,-0.00002704,-0.00008244,-0.00028411,-0.00011163,-0.00006843
 ,-0.00020512,0.00006356,0.00058027,-0.02098666,-0.03358241,-0.01936162
 ,0.19575082,0.00255368,0.00075811,-0.00628591,-0.21139447,-0.27406338,
 -0.14933678,0.00025788,0.00014716,-0.00000443,0.00000826,-0.00017269,0
 .00009038,-0.00007716,-0.00008088,-0.00010457,-0.00012371,-0.00012383,
 -0.00009797,0.00003072,-0.00023992,0.00110588,0.00743225,0.00102898,-0
 .00217427,0.20184012,0.27197010,-0.00429683,-0.00582747,0.00533037,-0.
 10820968,-0.16339800,-0.11699618,0.00053857,-0.00021443,0.00021071,0.0
 0009756,0.00018939,0.00018682,-0.00001015,0.00008276,0.00023057,-0.000
 07028,0.00002943,0.00014726,0.00051433,0.00058321,-0.00218692,0.014635
 35,0.01431923,0.00853825,0.09658506,0.15364591,0.10909688,-0.06114917,
 0.03381032,0.00583526,-0.00044316,-0.00006725,-0.00011976,-0.00020936,
 -0.00012533,-0.00002023,0.00025966,-0.00041670,0.00006193,-0.00334245,
 0.00081985,0.00317473,0.00020008,-0.00011762,-0.00030046,0.00723604,-0
 .02178920,-0.00043593,0.00014815,-0.00055112,0.00039760,0.00020279,0.0
 0027945,-0.00067111,0.05658603,0.03551106,-0.36472500,-0.00169438,-0.0
 0025135,0.00228250,-0.00320287,-0.00003459,0.00003007,-0.00004767,-0.0
 0012222,0.00001862,0.00001755,0.00042954,0.00095665,-0.00054308,-0.000
 55821,0.00013212,0.00021848,0.00484175,-0.00715104,0.00016400,-0.00024
 590,0.00004802,0.00017906,0.00023750,0.00046516,0.00046419,-0.03948770
 ,0.36932502,-0.00592310,0.00728472,-0.02541781,0.00066368,0.00428529,-
 0.01161229,0.00011721,0.00019038,-0.00000205,-0.00005864,-0.00007302,-
 0.00007208,-0.00045546,0.00008207,0.00027669,0.00274121,-0.00047600,-0
 .00090990,-0.00017385,0.00039232,0.00636451,-0.00100503,0.00097936,-0.
 00125020,0.00001997,0.00126833,-0.00103602,-0.00529046,0.00125816,0.04
 173706,-0.02626189,-0.01236711,-0.00168992,-0.00010801,-0.00004633,0.0
 0011162,-0.07605753,0.01540674,-0.08348864,-0.17733713,0.05844232,0.12
 663392,0.00478856,0.00116513,0.00108592,-0.00106170,0.00030114,-0.0001
 7660,-0.00153272,0.00146195,-0.00044886,-0.00003065,-0.00002740,-0.000
 22249,0.00041183,-0.00018635,-0.00026540,0.00198507,-0.00075512,0.0004
 9380,0.51568815,0.00877114,0.00983436,0.00213580,0.00031505,-0.0001196
 9,-0.00025877,0.01523003,-0.05761871,0.04803194,0.05756320,-0.07545684
 ,-0.05578868,-0.02820006,-0.01259643,-0.00648209,0.00176593,-0.0010005
 7,0.00135830,0.00301257,-0.00123778,0.00003879,-0.00003557,0.00001558,
 0.00002725,-0.00027347,0.00028856,-0.00002116,0.00095980,0.00122825,-0
 .00042602,-0.03933434,0.57700051,0.01645541,0.01442719,-0.00068236,-0.
 00062931,0.00002344,0.00074144,-0.08227096,0.04975376,-0.27514172,0.12
 344699,-0.05743993,-0.16274072,0.00284452,0.00074162,0.00311758,-0.005
 97956,0.00200300,-0.00316434,0.00343555,-0.00207662,0.00018937,0.00000
 844,0.00005209,0.00031133,0.00022285,-0.00024841,0.00018710,-0.0012157
 6,-0.00018369,0.00015644,-0.01598271,-0.01067593,0.57252432,-0.2593599
 9,0.07285003,0.08479129,0.00369783,-0.00221532,-0.01001937,-0.00759038
 ,-0.00190831,-0.00085058,-0.02390427,-0.01347788,-0.00757911,-0.055420
 53,0.02363821,0.00167330,-0.00943935,0.00670783,-0.00565709,-0.0158122
 9,0.01321146,0.00310099,-0.00164641,-0.00047969,-0.00219881,0.00253087
 ,0.00062288,-0.00099762,-0.00013171,0.00068879,0.00391165,-0.17494669,
 -0.06587430,0.00210323,0.58174116,0.07691974,-0.12521507,-0.03262924,-
 0.00324586,-0.00031256,0.00320676,0.00803225,0.00243902,0.00086429,0.0
 0978738,0.00586299,0.00272450,0.01592293,-0.32858602,0.01618352,-0.017
 21112,0.01101634,-0.02179707,-0.01652069,0.01117747,-0.00397873,0.0006
 5072,-0.00006123,0.00089866,0.00021451,-0.00031088,-0.00065652,0.02857
 093,-0.00535141,0.00115749,-0.05917354,-0.13443462,-0.00679247,-0.0275
 6779,0.67026824,0.04166878,-0.01842747,0.01795505,0.00171989,-0.002020
 50,-0.01022745,-0.02543991,-0.01545913,-0.00559242,0.01807007,0.014417
 99,0.00314003,-0.00161938,0.02451423,-0.05043425,0.00246585,0.01254277
 ,-0.01443524,-0.00207603,-0.00112962,-0.00266748,-0.00099490,-0.000006
 50,-0.00128649,0.00155588,-0.00007869,-0.00207321,0.00043075,0.0013287
 2,-0.00144577,-0.00969121,-0.01157000,-0.07148053,-0.00619464,-0.00036
 316,0.28501842,-0.01985311,-0.01741601,-0.03924581,0.00320317,0.002904
 27,0.00730319,-0.00508683,-0.00476201,0.00050557,0.00350401,0.00173660
 ,0.00169092,-0.00467013,0.00096001,-0.01149253,-0.08902741,-0.15915864
 ,-0.08229048,0.00344060,0.00196421,0.01611923,0.00101415,0.00004930,-0
 .00002675,-0.00168099,-0.00121391,0.00197435,-0.00078771,-0.00079810,0
 .00499092,-0.00980081,0.00468367,-0.03744084,-0.04239803,0.01676532,-0
 .02401510,0.16073377,-0.01175797,-0.01611178,0.01460623,0.00190777,0.0
 0223715,-0.00627909,-0.00412090,-0.00162056,-0.00080331,0.00057983,0.0
 0060651,0.00057425,0.00821418,0.00129586,0.03543012,-0.14058109,-0.342
 29702,-0.14296416,0.00216955,-0.00089783,0.00546109,-0.00103645,-0.000
 02701,-0.00068494,0.00048862,0.00037986,0.00056699,-0.00108023,0.00244
 134,-0.01588300,-0.00262442,0.00718897,-0.01832195,-0.00783515,-0.0900
 5168,-0.00554136,0.15410337,0.43597341,0.01275460,-0.00054159,-0.01887
 781,0.00632582,-0.00340190,-0.01587198,-0.00115616,-0.00213386,0.00169
 741,-0.00073114,-0.00077804,0.00114430,-0.00505153,0.00088892,-0.01217
 294,-0.09266196,-0.18391770,-0.11625478,-0.00306603,0.00088079,-0.0032
 9524,-0.00352850,-0.00041032,-0.00306219,0.00201329,0.00193600,-0.0012
 6353,-0.00205170,0.00186756,-0.00694126,-0.01266489,0.00342984,-0.0135
 4971,-0.06192302,0.04765646,-0.14423992,0.16085125,0.13459267,0.332462
 73,0.00201022,-0.00149849,-0.00000248,0.00004400,0.00011384,-0.0000150
 5,-0.00217451,0.01070239,0.00052343,-0.00218870,0.02163408,-0.00422473
 ,-0.00485068,-0.00246120,-0.00154424,0.00030724,0.00005087,0.00019378,
 0.00020173,0.00019675,0.00010944,-0.00001941,0.00001137,0.00003830,-0.
 00003006,-0.00002965,0.00017586,-0.00055425,0.00054456,-0.00003191,-0.
 05573647,0.04141635,-0.00499786,0.00267978,-0.03314479,0.00411997,0.00
 140932,0.00157290,0.00088997,0.05890178,0.00096689,0.00087422,-0.00006
 494,0.00007395,0.00012143,-0.00012751,0.00059625,-0.00273168,-0.000194
 97,0.00076529,-0.00731903,0.00149342,-0.00217977,0.00044922,-0.0003305
 5,0.00025677,0.00021093,-0.00007626,0.00002279,0.00025264,0.00012196,-
 0.00004033,0.00001423,0.00002020,-0.00010616,-0.00004635,0.00023649,-0
 .00080520,0.00029968,-0.00004009,0.03773733,-0.31309158,0.02873788,0.0
 0163926,-0.01644060,0.00179272,0.00018193,0.00088279,-0.00006884,-0.03
 910898,0.33652408,-0.00012577,0.00075283,0.00137948,-0.00009651,-0.000
 17660,-0.00017337,-0.00301843,0.02934530,-0.00108695,0.00171127,-0.021
 24307,0.00286925,-0.00114411,-0.00057956,0.00095176,0.00022568,0.00010
 207,-0.00003285,-0.00002950,-0.00008919,-0.00006034,0.00002281,-0.0000
 4347,-0.00005577,0.00026256,0.00028453,-0.00037209,0.00020514,0.000173
 96,0.00015266,-0.00369452,0.03020073,-0.05046821,-0.00016023,-0.006474
 48,-0.00223074,0.00107609,-0.00075354,0.00022491,0.00476552,-0.0314995
 1,0.04890225\\0.00058717,-0.00374923,0.00072338,0.00001186,-0.00053446
 ,-0.00000028,0.00000002,-0.00062651,0.00000010,0.00000008,-0.00000003,
 -0.00000011,0.00000016,0.00000047,-0.00000018,0.00000086,0.00000028,0.
 00000008,0.00000006,0.00000006,-0.00000017,-0.00000008,-0.00000013,-0.
 00000017,0.00000014,-0.00000004,-0.00000010,-0.00000016,-0.00000006,0.
 00000002,-0.00000013,-0.00000016,-0.00000025,-0.00000025,-0.00000097,-
 0.00000002,-0.00000050,-0.00000033,0.00000005,-0.00000001,0.,0.\\\@


 IF THERE IS ONE WAY BETTER THAN ANOTHER IT IS THE WAY OF NATURE.

                          -- ARISTOTLE
 Job cpu time:  0 days  0 hours  9 minutes 48.9 seconds.
 File lengths (MBytes):  RWF=   1312 Int=      0 D2E=      0 Chk=     32 Scr=     32
 Normal termination of Gaussian 09 at Thu Apr 26 21:53:18 2018.
