 Entering Gaussian System, Link 0=g09
 Input=H3O-mid-field-3.gjf
 Output=H3O-mid-field-3.log
 Initial command:
 /share/home/zxchen/g09/l1.exe /scratch/zxchen/Gau-13541.inp -scrdir=/scratch/zxchen/
 Entering Link 1 = /share/home/zxchen/g09/l1.exe PID=     13542.
  
 Copyright (c) 1988,1990,1992,1993,1995,1998,2003,2009,2010,
            Gaussian, Inc.  All Rights Reserved.
  
 This is part of the Gaussian(R) 09 program.  It is based on
 the Gaussian(R) 03 system (copyright 2003, Gaussian, Inc.),
 the Gaussian(R) 98 system (copyright 1998, Gaussian, Inc.),
 the Gaussian(R) 94 system (copyright 1995, Gaussian, Inc.),
 the Gaussian 92(TM) system (copyright 1992, Gaussian, Inc.),
 the Gaussian 90(TM) system (copyright 1990, Gaussian, Inc.),
 the Gaussian 88(TM) system (copyright 1988, Gaussian, Inc.),
 the Gaussian 86(TM) system (copyright 1986, Carnegie Mellon
 University), and the Gaussian 82(TM) system (copyright 1983,
 Carnegie Mellon University). Gaussian is a federally registered
 trademark of Gaussian, Inc.
  
 This software contains proprietary and confidential information,
 including trade secrets, belonging to Gaussian, Inc.
  
 This software is provided under written license and may be
 used, copied, transmitted, or stored only in accord with that
 written license.
  
 The following legend is applicable only to US Government
 contracts under FAR:
  
                    RESTRICTED RIGHTS LEGEND
  
 Use, reproduction and disclosure by the US Government is
 subject to restrictions as set forth in subparagraphs (a)
 and (c) of the Commercial Computer Software - Restricted
 Rights clause in FAR 52.227-19.
  
 Gaussian, Inc.
 340 Quinnipiac St., Bldg. 40, Wallingford CT 06492
  
  
 ---------------------------------------------------------------
 Warning -- This program may not be used in any manner that
 competes with the business of Gaussian, Inc. or will provide
 assistance to any competitor of Gaussian, Inc.  The licensee
 of this program is prohibited from giving any competitor of
 Gaussian, Inc. access to this program.  By using this program,
 the user acknowledges that Gaussian, Inc. is engaged in the
 business of creating and licensing software in the field of
 computational chemistry and represents and warrants to the
 licensee that it is not a competitor of Gaussian, Inc. and that
 it will not use this program in any manner prohibited above.
 ---------------------------------------------------------------
  

 Cite this work as:
 Gaussian 09, Revision B.01,
 M. J. Frisch, G. W. Trucks, H. B. Schlegel, G. E. Scuseria, 
 M. A. Robb, J. R. Cheeseman, G. Scalmani, V. Barone, B. Mennucci, 
 G. A. Petersson, H. Nakatsuji, M. Caricato, X. Li, H. P. Hratchian, 
 A. F. Izmaylov, J. Bloino, G. Zheng, J. L. Sonnenberg, M. Hada, 
 M. Ehara, K. Toyota, R. Fukuda, J. Hasegawa, M. Ishida, T. Nakajima, 
 Y. Honda, O. Kitao, H. Nakai, T. Vreven, J. A. Montgomery, Jr., 
 J. E. Peralta, F. Ogliaro, M. Bearpark, J. J. Heyd, E. Brothers, 
 K. N. Kudin, V. N. Staroverov, T. Keith, R. Kobayashi, J. Normand, 
 K. Raghavachari, A. Rendell, J. C. Burant, S. S. Iyengar, J. Tomasi, 
 M. Cossi, N. Rega, J. M. Millam, M. Klene, J. E. Knox, J. B. Cross, 
 V. Bakken, C. Adamo, J. Jaramillo, R. Gomperts, R. E. Stratmann, 
 O. Yazyev, A. J. Austin, R. Cammi, C. Pomelli, J. W. Ochterski, 
 R. L. Martin, K. Morokuma, V. G. Zakrzewski, G. A. Voth, 
 P. Salvador, J. J. Dannenberg, S. Dapprich, A. D. Daniels, 
 O. Farkas, J. B. Foresman, J. V. Ortiz, J. Cioslowski, 
 and D. J. Fox, Gaussian, Inc., Wallingford CT, 2010.
 
 ******************************************
 Gaussian 09:  EM64L-G09RevB.01 12-Aug-2010
                 8-Mar-2018 
 ******************************************
 %chk=H3O-mid-field-3.chk
 %nprocshared=24
 Will use up to   24 processors via shared memory.
 ----------------------------------------------------------------------
 # opt=(calcall,ts,z-matrix,noeigen,maxcycle=300) b3lyp/6-31++g(d,p) no
 symm field=z+50 freq
 ----------------------------------------------------------------------
 1/5=1,6=300,10=4,11=1,14=-1,18=40,26=3,38=1/1,3;
 2/12=2,15=1,17=6,18=5,29=3,40=1/2;
 3/5=1,6=6,7=1111,11=2,14=3,15=50,16=1,25=1,30=1,71=2,74=-5/1,2,3;
 4//1;
 5/5=2,38=5/2;
 8/6=4,10=90,11=11/1;
 11/6=1,8=1,9=11,15=111,16=1,31=1/1,2,10;
 10/6=1,31=1/2;
 6/7=2,8=2,9=2,10=2,18=1,28=1/1;
 7/10=1,25=1,30=1/1,2,3,16;
 1/5=1,6=300,10=4,11=1,14=-1,18=40/3(3);
 2/15=1,29=3/2;
 7/8=1,9=1,25=1,30=1,44=-1/16;
 99//99;
 2/15=1,29=3/2;
 3/5=1,6=6,7=1111,11=2,14=3,15=50,16=1,25=1,30=1,71=2,74=-5/1,2,3;
 4/5=5,16=3/1;
 5/5=2,38=5/2;
 8/6=4,10=90,11=11/1;
 11/6=1,8=1,9=11,15=111,16=1,31=1/1,2,10;
 10/6=1,31=1/2;
 7/10=1,25=1,30=1/1,2,3,16;
 1/5=1,6=300,10=4,11=1,14=-1,18=40/3(-8);
 2/15=1,29=3/2;
 6/7=2,8=2,9=2,10=2,18=1,19=2,28=1/1;
 7/8=1,9=1,25=1,30=1,44=-1/16;
 99//99;
 -------------------
 Title Card Required
 -------------------
 Symbolic Z-matrix:
 Charge =  1 Multiplicity = 1
 C
 O                    1    B1
 H                    1    B2       2    A1
 H                    1    B3       2    A2       3    D1       0
 H                    2    B4       1    A3       4    D2       0
 H                    2    B5       1    A4       4    D3       0
 H                    1    B6       2    A5       5    D4       0
 H                    1    B7       2    A6       5    D5       0
 H                    1    B8       2    A7       5    D6       0
 H                    1    B9       2    A8       5    D7       0
 H                    1    B10      2    A9       5    D8       0
 C                    1    B11      2    A10      5    D9       0
 C                    1    B12      12   A11      2    D10      0
 O                    12   B13      1    A12      13   D11      0
       Variables:
  B1                    2.3396                   
  B2                    2.19756                  
  B3                    2.19202                  
  B4                    0.96698                  
  B5                    0.96716                  
  B6                    1.08679                  
  B7                    2.50279                  
  B8                    2.09371                  
  B9                    2.14771                  
  B10                   2.11633                  
  B11                   1.47328                  
  B12                   1.4744                   
  B13                   1.45327                  
  A1                   87.2929                   
  A2                   95.13702                  
  A3                  127.66426                  
  A4                  123.01324                  
  A5                   84.64858                  
  A6                  141.58388                  
  A7                  124.68662                  
  A8                   88.15314                  
  A9                   77.31573                  
  A10                 101.00124                  
  A11                 123.37905                  
  A12                  82.53245                  
  D1                   48.25262                  
  D2                   81.83268                  
  D3                  -78.57096                  
  D4                  -60.14251                  
  D5                   11.06297                  
  D6                 -169.91747                  
  D7                  154.62539                  
  D8                 -155.88845                  
  D9                   55.91857                  
  D10                -104.4677                   
  D11                  82.7539                   
 

 GradGradGradGradGradGradGradGradGradGradGradGradGradGradGradGradGradGrad
 Berny optimization.
 Initialization pass.
                       ----------------------------
                       !    Initial Parameters    !
                       ! (Angstroms and Degrees)  !
 ----------------------                            ----------------------
 !      Name          Value   Derivative information (Atomic Units)     !
 ------------------------------------------------------------------------
 !       B1          2.3396   calculate D2E/DX2 analytically            !
 !       B2          2.1976   calculate D2E/DX2 analytically            !
 !       B3          2.192    calculate D2E/DX2 analytically            !
 !       B4          0.967    calculate D2E/DX2 analytically            !
 !       B5          0.9672   calculate D2E/DX2 analytically            !
 !       B6          1.0868   calculate D2E/DX2 analytically            !
 !       B7          2.5028   calculate D2E/DX2 analytically            !
 !       B8          2.0937   calculate D2E/DX2 analytically            !
 !       B9          2.1477   calculate D2E/DX2 analytically            !
 !       B10         2.1163   calculate D2E/DX2 analytically            !
 !       B11         1.4733   calculate D2E/DX2 analytically            !
 !       B12         1.4744   calculate D2E/DX2 analytically            !
 !       B13         1.4533   calculate D2E/DX2 analytically            !
 !       A1         87.2929   calculate D2E/DX2 analytically            !
 !       A2         95.137    calculate D2E/DX2 analytically            !
 !       A3        127.6643   calculate D2E/DX2 analytically            !
 !       A4        123.0132   calculate D2E/DX2 analytically            !
 !       A5         84.6486   calculate D2E/DX2 analytically            !
 !       A6        141.5839   calculate D2E/DX2 analytically            !
 !       A7        124.6866   calculate D2E/DX2 analytically            !
 !       A8         88.1531   calculate D2E/DX2 analytically            !
 !       A9         77.3157   calculate D2E/DX2 analytically            !
 !       A10       101.0012   calculate D2E/DX2 analytically            !
 !       A11       123.3791   calculate D2E/DX2 analytically            !
 !       A12        82.5324   calculate D2E/DX2 analytically            !
 !       D1         48.2526   calculate D2E/DX2 analytically            !
 !       D2         81.8327   calculate D2E/DX2 analytically            !
 !       D3        -78.571    calculate D2E/DX2 analytically            !
 !       D4        -60.1425   calculate D2E/DX2 analytically            !
 !       D5         11.063    calculate D2E/DX2 analytically            !
 !       D6       -169.9175   calculate D2E/DX2 analytically            !
 !       D7        154.6254   calculate D2E/DX2 analytically            !
 !       D8       -155.8884   calculate D2E/DX2 analytically            !
 !       D9         55.9186   calculate D2E/DX2 analytically            !
 !       D10      -104.4677   calculate D2E/DX2 analytically            !
 !       D11        82.7539   calculate D2E/DX2 analytically            !
 ------------------------------------------------------------------------
 Trust Radius=3.00D-01 FncErr=1.00D-07 GrdErr=1.00D-06
 Number of steps in this run=    100 maximum allowed number of steps=    100.
 Search for a saddle point of order  1.
 GradGradGradGradGradGradGradGradGradGradGradGradGradGradGradGradGradGrad

 ---------------------------------------------------------------------------------------------------
                            Z-MATRIX (ANGSTROMS AND DEGREES)
   CD    Cent   Atom    N1       Length/X        N2       Alpha/Y        N3        Beta/Z          J
 ---------------------------------------------------------------------------------------------------
      1      1  C 
      2      2  O        1   2.339595(     1)
      3      3  H        1   2.197555(     2)      2   87.293(    14)
      4      4  H        1   2.192023(     3)      2   95.137(    15)      3   48.253(    26)      0
      5      5  H        2   0.966977(     4)      1  127.664(    16)      4   81.833(    27)      0
      6      6  H        2   0.967159(     5)      1  123.013(    17)      4  -78.571(    28)      0
      7      7  H        1   1.086794(     6)      2   84.649(    18)      5  -60.143(    29)      0
      8      8  H        1   2.502793(     7)      2  141.584(    19)      5   11.063(    30)      0
      9      9  H        1   2.093706(     8)      2  124.687(    20)      5 -169.917(    31)      0
     10     10  H        1   2.147713(     9)      2   88.153(    21)      5  154.625(    32)      0
     11     11  H        1   2.116328(    10)      2   77.316(    22)      5 -155.888(    33)      0
     12     12  C        1   1.473277(    11)      2  101.001(    23)      5   55.919(    34)      0
     13     13  C        1   1.474401(    12)     12  123.379(    24)      2 -104.468(    35)      0
     14     14  O       12   1.453272(    13)      1   82.532(    25)     13   82.754(    36)      0
 ---------------------------------------------------------------------------------------------------
                         Z-Matrix orientation:                         
 ---------------------------------------------------------------------
 Center     Atomic      Atomic             Coordinates (Angstroms)
 Number     Number       Type             X           Y           Z
 ---------------------------------------------------------------------
      1          6           0        0.000000    0.000000    0.000000
      2          8           0        0.000000    0.000000    2.339595
      3          1           0        2.195103    0.000000    0.103791
      4          1           0        1.453691   -1.628873   -0.196269
      5          1           0        0.637718    0.423379    2.930450
      6          1           0       -0.486079   -0.649198    2.866535
      7          1           0       -0.070253    1.079774    0.101359
      8          1           0        1.436599    0.595561   -1.960985
      9          1           0       -1.578846   -0.686421   -1.191502
     10          1           0       -1.107035   -1.839118    0.069217
     11          1           0       -2.036550   -0.339651    0.464700
     12          6           0        1.337672   -0.549670   -0.281146
     13          6           0       -1.243921   -0.777733   -0.147145
     14          8           0        0.982706   -0.207975   -1.648349
 ---------------------------------------------------------------------
                    Distance matrix (angstroms):
                    1          2          3          4          5
     1  C    0.000000
     2  O    2.339595   0.000000
     3  H    2.197555   3.133257   0.000000
     4  H    2.192023   3.346199   1.814650   0.000000
     5  H    3.028774   0.966977   3.254950   3.828044   0.000000
     6  H    2.979052   0.967159   3.904222   3.755428   1.554807
     7  H    1.086794   2.486071   2.509533   3.122140   2.989286
     8  H    2.502793   4.573128   2.278886   2.839476   4.959233
     9  H    2.093706   3.928432   4.048660   3.327910   4.809917
    10  H    2.147713   3.124500   3.779903   2.583022   4.043477
    11  H    2.116328   2.788930   4.260576   3.778989   3.716698
    12  C    1.473277   2.993290   1.088807   1.088735   3.427989
    13  C    1.474401   2.887228   3.534788   2.829128   3.801950
    14  O    1.930290   4.112501   2.140830   2.085501   4.634978
                    6          7          8          9         10
     6  H    0.000000
     7  H    3.287621   0.000000
     8  H    5.343320   2.599678   0.000000
     9  H    4.202760   2.658343   3.365782   0.000000
    10  H    3.102658   3.097722   4.064413   1.772210   0.000000
    11  H    2.875516   2.452164   4.338356   1.752925   1.807984
    12  C    3.639213   2.187156   2.035485   3.058353   2.786041
    13  C    3.110163   2.211240   3.515841   1.100543   1.091828
    14  O    4.768248   2.414228   0.974387   2.645594   3.158746
                   11         12         13         14
    11  H    0.000000
    12  C    3.462047   0.000000
    13  C    1.092946   2.595109   0.000000
    14  O    3.687577   1.453272   2.745197   0.000000
 Symmetry turned off by external request.
 Stoichiometry    C3H9O2(1+)
 Framework group  C1[X(C3H9O2)]
 Deg. of freedom    36
 Full point group                 C1      NOp   1
 Rotational constants (GHZ):      7.0070717      2.8714569      2.2406769
 Standard basis: 6-31++G(d,p) (6D, 7F)
 The following finite field(s) will be applied:
 An electric field of              0.0000  0.0000  0.0050
 Integral buffers will be    131072 words long.
 Raffenetti 2 integral format.
 Two-electron integral symmetry is turned off.
   149 basis functions,   232 primitive gaussians,   149 cartesian basis functions
    21 alpha electrons       21 beta electrons
       nuclear repulsion energy       192.1529540756 Hartrees.
 NAtoms=   14 NActive=   14 NUniq=   14 SFac= 1.00D+00 NAtFMM=   50 NAOKFM=F Big=F
 One-electron integrals computed using PRISM.
 PrsmSu:  requested number of processors reduced to:  10 ShMem   1 Linda.
 NBasis=   149 RedAO= T  NBF=   149
 NBsUse=   149 1.00D-06 NBFU=   149
 The nuclear repulsion energy is now       192.2110397027 hartrees.
 Harris functional with IExCor=  402 diagonalized for initial guess.
 ExpMin= 3.60D-02 ExpMax= 5.48D+03 ExpMxC= 8.25D+02 IAcc=3 IRadAn=         0 AccDes= 0.00D+00
 HarFok:  IExCor=  402 AccDes= 0.00D+00 IRadAn=         0 IDoV= 1
 ScaDFX=  1.000000  1.000000  1.000000  1.000000
 FoFCou: FMM=F IPFlag=           0 FMFlag=      100000 FMFlg1=           0
         NFxFlg=           0 DoJE=T BraDBF=F KetDBF=T FulRan=T
         Omega=  0.000000  0.000000  1.000000  0.000000  0.000000 ICntrl=     500 IOpCl=  0
         NMat0=    1 NMatS0=    1 NMatT0=    0 NMatD0=    1 NMtDS0=    0 NMtDT0=    0
         I1Cent=           4 NGrid=           0.
 Symmetry not used in FoFCou.
 Requested convergence on RMS density matrix=1.00D-08 within 128 cycles.
 Requested convergence on MAX density matrix=1.00D-06.
 Requested convergence on             energy=1.00D-06.
 No special actions if energy rises.
 SCF Done:  E(RB3LYP) =  -269.886532005     A.U. after   12 cycles
             Convg  =    0.9364D-08             -V/T =  2.0095
 Range of M.O.s used for correlation:     1   149
 NBasis=   149 NAE=    21 NBE=    21 NFC=     0 NFV=     0
 NROrb=    149 NOA=    21 NOB=    21 NVA=   128 NVB=   128

 **** Warning!!: The largest alpha MO coefficient is  0.40185455D+02

 PrsmSu:  requested number of processors reduced to:  10 ShMem   1 Linda.
 PrsmSu:  requested number of processors reduced to:  17 ShMem   1 Linda.
 Symmetrizing basis deriv contribution to polar:
 IMax=3 JMax=2 DiffMx= 0.00D+00
 G2DrvN: will do     3 centers at a time, making    5 passes doing MaxLOS=2.
 Estimated number of processors is:   15
 Calling FoFCou, ICntrl=  3107 FMM=F I1Cent=   0 AccDes= 0.00D+00.
 CoulSu:  requested number of processors reduced to:  15 ShMem   1 Linda.
 Calling FoFCou, ICntrl=  3107 FMM=F I1Cent=   0 AccDes= 0.00D+00.
 CoulSu:  requested number of processors reduced to:  15 ShMem   1 Linda.
 Calling FoFCou, ICntrl=  3107 FMM=F I1Cent=   0 AccDes= 0.00D+00.
 CoulSu:  requested number of processors reduced to:  15 ShMem   1 Linda.
 Calling FoFCou, ICntrl=  3107 FMM=F I1Cent=   0 AccDes= 0.00D+00.
 CoulSu:  requested number of processors reduced to:  15 ShMem   1 Linda.
 Calling FoFCou, ICntrl=  3107 FMM=F I1Cent=   0 AccDes= 0.00D+00.
 CoulSu:  requested number of processors reduced to:  15 ShMem   1 Linda.
 FoFDir/FoFCou used for L=0 through L=2.
 End of G2Drv Frequency-dependent properties file   721 does not exist.
 End of G2Drv Frequency-dependent properties file   722 does not exist.
          IDoAtm=11111111111111
          Differentiating once with respect to electric field.
                with respect to dipole field.
          Differentiating once with respect to nuclear coordinates.
 PrRfSu:  requested number of processors reduced to:  16 ShMem   1 Linda.
 CalDSu:  requested number of processors reduced to:  21 ShMem   1 Linda.
 PrRfSu:  requested number of processors reduced to:  16 ShMem   1 Linda.
 CalDSu:  requested number of processors reduced to:  21 ShMem   1 Linda.
          There are    45 degrees of freedom in the 1st order CPHF.  IDoFFX=5.
     45 vectors produced by pass  0 Test12= 5.97D-15 2.22D-09 XBig12= 4.39D+01 3.80D+00.
 AX will form    23 AO Fock derivatives at one time.
 PrRfSu:  requested number of processors reduced to:  16 ShMem   1 Linda.
 CalDSu:  requested number of processors reduced to:  21 ShMem   1 Linda.
 PrRfSu:  requested number of processors reduced to:  16 ShMem   1 Linda.
 CalDSu:  requested number of processors reduced to:  21 ShMem   1 Linda.
     42 vectors produced by pass  1 Test12= 5.97D-15 2.22D-09 XBig12= 7.88D+00 4.73D-01.
 PrRfSu:  requested number of processors reduced to:  16 ShMem   1 Linda.
 CalDSu:  requested number of processors reduced to:  22 ShMem   1 Linda.
 PrRfSu:  requested number of processors reduced to:  16 ShMem   1 Linda.
 CalDSu:  requested number of processors reduced to:  22 ShMem   1 Linda.
     42 vectors produced by pass  2 Test12= 5.97D-15 2.22D-09 XBig12= 4.07D-02 2.79D-02.
 PrRfSu:  requested number of processors reduced to:  16 ShMem   1 Linda.
 CalDSu:  requested number of processors reduced to:  22 ShMem   1 Linda.
 PrRfSu:  requested number of processors reduced to:  16 ShMem   1 Linda.
 CalDSu:  requested number of processors reduced to:  22 ShMem   1 Linda.
     42 vectors produced by pass  3 Test12= 5.97D-15 2.22D-09 XBig12= 9.48D-05 1.56D-03.
 PrRfSu:  requested number of processors reduced to:  16 ShMem   1 Linda.
 CalDSu:  requested number of processors reduced to:  22 ShMem   1 Linda.
 PrRfSu:  requested number of processors reduced to:  16 ShMem   1 Linda.
 CalDSu:  requested number of processors reduced to:  22 ShMem   1 Linda.
     42 vectors produced by pass  4 Test12= 5.97D-15 2.22D-09 XBig12= 7.77D-08 4.23D-05.
 PrRfSu:  requested number of processors reduced to:  16 ShMem   1 Linda.
 CalDSu:  requested number of processors reduced to:  22 ShMem   1 Linda.
 PrRfSu:  requested number of processors reduced to:  16 ShMem   1 Linda.
 CalDSu:  requested number of processors reduced to:  22 ShMem   1 Linda.
     28 vectors produced by pass  5 Test12= 5.97D-15 2.22D-09 XBig12= 6.20D-11 8.32D-07.
 PrRfSu:  requested number of processors reduced to:  16 ShMem   1 Linda.
 CalDSu:  requested number of processors reduced to:  20 ShMem   1 Linda.
      3 vectors produced by pass  6 Test12= 5.97D-15 2.22D-09 XBig12= 4.81D-14 2.99D-08.
 Inverted reduced A of dimension   244 with in-core refinement.
 Isotropic polarizability for W=    0.000000       47.10 Bohr**3.
 End of Minotr Frequency-dependent properties file   721 does not exist.
 End of Minotr Frequency-dependent properties file   722 does not exist.

 **********************************************************************

            Population analysis using the SCF density.

 **********************************************************************

 Alpha  occ. eigenvalues --  -19.40524 -19.37444 -10.49623 -10.45553 -10.37878
 Alpha  occ. eigenvalues --   -1.26629  -1.22451  -1.00517  -0.90672  -0.80161
 Alpha  occ. eigenvalues --   -0.74861  -0.74502  -0.67777  -0.66425  -0.62722
 Alpha  occ. eigenvalues --   -0.60192  -0.58485  -0.57415  -0.56081  -0.52871
 Alpha  occ. eigenvalues --   -0.51370
 Alpha virt. eigenvalues --   -0.27075  -0.18552  -0.15598  -0.13243  -0.12291
 Alpha virt. eigenvalues --   -0.12122  -0.10056  -0.09281  -0.08068  -0.07206
 Alpha virt. eigenvalues --   -0.05503  -0.04753  -0.03892  -0.03246  -0.02413
 Alpha virt. eigenvalues --   -0.01393  -0.00148   0.00291   0.00708   0.01569
 Alpha virt. eigenvalues --    0.02009   0.02604   0.03919   0.04077   0.04451
 Alpha virt. eigenvalues --    0.04856   0.05554   0.06349   0.07159   0.07885
 Alpha virt. eigenvalues --    0.09186   0.09626   0.11980   0.14451   0.15111
 Alpha virt. eigenvalues --    0.15861   0.17384   0.18554   0.21584   0.23474
 Alpha virt. eigenvalues --    0.24720   0.25790   0.44043   0.48360   0.51782
 Alpha virt. eigenvalues --    0.53690   0.57452   0.58539   0.59764   0.61944
 Alpha virt. eigenvalues --    0.66942   0.76487   0.77519   0.79101   0.81234
 Alpha virt. eigenvalues --    0.81750   0.82754   0.84494   0.87953   0.90138
 Alpha virt. eigenvalues --    0.96533   0.98219   0.98992   1.01509   1.04104
 Alpha virt. eigenvalues --    1.04884   1.07728   1.11144   1.14801   1.21118
 Alpha virt. eigenvalues --    1.25788   1.31156   1.31859   1.35486   1.40389
 Alpha virt. eigenvalues --    1.42029   1.46305   1.54723   1.58371   1.60104
 Alpha virt. eigenvalues --    1.67586   1.69536   1.76691   1.81981   1.85098
 Alpha virt. eigenvalues --    1.86476   1.90180   1.93628   1.96269   2.02444
 Alpha virt. eigenvalues --    2.05504   2.08277   2.09305   2.13022   2.16647
 Alpha virt. eigenvalues --    2.20265   2.22809   2.28976   2.32316   2.35107
 Alpha virt. eigenvalues --    2.37887   2.41409   2.44266   2.44987   2.46231
 Alpha virt. eigenvalues --    2.49463   2.54565   2.63778   2.65896   2.67938
 Alpha virt. eigenvalues --    2.68768   2.74238   2.80318   2.84342   3.07105
 Alpha virt. eigenvalues --    3.10121   3.17922   3.23129   3.25973   3.27348
 Alpha virt. eigenvalues --    3.29652   3.35252   3.36470   4.05793   4.12910
 Alpha virt. eigenvalues --    4.18907   4.33610   4.44430
          Condensed to atoms (all electrons):
              1          2          3          4          5          6
     1  C    6.572894  -0.168105  -0.036077  -0.060931   0.004466   0.027445
     2  O   -0.168105   8.212612   0.006965  -0.000401   0.278299   0.283562
     3  H   -0.036077   0.006965   0.555238  -0.042802   0.000231   0.000208
     4  H   -0.060931  -0.000401  -0.042802   0.476699  -0.000021  -0.000479
     5  H    0.004466   0.278299   0.000231  -0.000021   0.337176  -0.021469
     6  H    0.027445   0.283562   0.000208  -0.000479  -0.021469   0.339401
     7  H    0.341506  -0.012913  -0.028550   0.011481  -0.002846   0.001198
     8  H    0.001112  -0.000176  -0.016973   0.008928   0.000095  -0.000176
     9  H   -0.046145   0.003697   0.000152   0.001439  -0.000099   0.000329
    10  H   -0.029896  -0.005072   0.000693   0.004499  -0.000131  -0.000361
    11  H   -0.100854  -0.001050   0.001402  -0.002972   0.000912  -0.000849
    12  C   -0.162382   0.011055   0.339452   0.435989   0.000990  -0.007647
    13  C   -0.358147   0.079323   0.034524  -0.020678   0.000658  -0.009217
    14  O   -0.224673   0.012861  -0.009513  -0.037530   0.000702  -0.000724
              7          8          9         10         11         12
     1  C    0.341506   0.001112  -0.046145  -0.029896  -0.100854  -0.162382
     2  O   -0.012913  -0.000176   0.003697  -0.005072  -0.001050   0.011055
     3  H   -0.028550  -0.016973   0.000152   0.000693   0.001402   0.339452
     4  H    0.011481   0.008928   0.001439   0.004499  -0.002972   0.435989
     5  H   -0.002846   0.000095  -0.000099  -0.000131   0.000912   0.000990
     6  H    0.001198  -0.000176   0.000329  -0.000361  -0.000849  -0.007647
     7  H    0.520412   0.004687  -0.001077   0.010334  -0.021097  -0.003551
     8  H    0.004687   0.327600   0.000559  -0.000138  -0.000110  -0.003539
     9  H   -0.001077   0.000559   0.413037  -0.013705  -0.013840  -0.001315
    10  H    0.010334  -0.000138  -0.013705   0.478887  -0.032829  -0.015136
    11  H   -0.021097  -0.000110  -0.013840  -0.032829   0.487198   0.021554
    12  C   -0.003551  -0.003539  -0.001315  -0.015136   0.021554   5.216680
    13  C   -0.049661  -0.016349   0.402957   0.389115   0.447948   0.098266
    14  O   -0.023212   0.259469  -0.001921  -0.002074   0.003675   0.210708
             13         14
     1  C   -0.358147  -0.224673
     2  O    0.079323   0.012861
     3  H    0.034524  -0.009513
     4  H   -0.020678  -0.037530
     5  H    0.000658   0.000702
     6  H   -0.009217  -0.000724
     7  H   -0.049661  -0.023212
     8  H   -0.016349   0.259469
     9  H    0.402957  -0.001921
    10  H    0.389115  -0.002074
    11  H    0.447948   0.003675
    12  C    0.098266   0.210708
    13  C    5.518839   0.089567
    14  O    0.089567   8.096122
 Mulliken atomic charges:
              1
     1  C    0.239785
     2  O   -0.700658
     3  H    0.195048
     4  H    0.226780
     5  H    0.401037
     6  H    0.388778
     7  H    0.253289
     8  H    0.435012
     9  H    0.255931
    10  H    0.215813
    11  H    0.210911
    12  C   -0.141124
    13  C   -0.607147
    14  O   -0.373456
 Sum of Mulliken atomic charges =   1.00000
 Mulliken charges with hydrogens summed into heavy atoms:
              1
     1  C    0.493074
     2  O    0.089157
    12  C    0.280705
    13  C    0.075509
    14  O    0.061555
 Sum of Mulliken charges with hydrogens summed into heavy atoms =   1.00000
 APT atomic charges:
              1
     1  C    0.827716
     2  O   -0.635566
     3  H    0.046332
     4  H    0.061595
     5  H    0.290058
     6  H    0.286888
     7  H    0.049097
     8  H    0.331565
     9  H    0.132617
    10  H    0.053160
    11  H    0.081958
    12  C    0.314980
    13  C   -0.185126
    14  O   -0.655273
 Sum of APT charges=   1.00000
 APT Atomic charges with hydrogens summed into heavy atoms:
              1
     1  C    0.876813
     2  O   -0.058621
     3  H    0.000000
     4  H    0.000000
     5  H    0.000000
     6  H    0.000000
     7  H    0.000000
     8  H    0.000000
     9  H    0.000000
    10  H    0.000000
    11  H    0.000000
    12  C    0.422907
    13  C    0.082609
    14  O   -0.323708
 Sum of APT charges=   1.00000
 Electronic spatial extent (au):  <R**2>=            574.0201
 Charge=              1.0000 electrons
 Dipole moment (field-independent basis, Debye):
    X=              2.1065    Y=             -0.3187    Z=              1.5294  Tot=              2.6226
 Quadrupole moment (field-independent basis, Debye-Ang):
   XX=            -19.9364   YY=            -25.5453   ZZ=            -14.4388
   XY=              3.5901   XZ=             -1.6152   YZ=             -3.5619
 Traceless Quadrupole moment (field-independent basis, Debye-Ang):
   XX=              0.0371   YY=             -5.5718   ZZ=              5.5347
   XY=              3.5901   XZ=             -1.6152   YZ=             -3.5619
 Octapole moment (field-independent basis, Debye-Ang**2):
  XXX=             -8.6406  YYY=             25.1914  ZZZ=             28.9914  XYY=             -3.5110
  XXY=              9.1905  XXZ=             -7.6484  XZZ=              2.6466  YZZ=             12.5195
  YYZ=             -2.9440  XYZ=              0.0429
 Hexadecapole moment (field-independent basis, Debye-Ang**3):
 XXXX=           -189.1518 YYYY=            -76.3417 ZZZZ=           -189.6732 XXXY=              0.2604
 XXXZ=             22.1026 YYYX=             -5.3235 YYYZ=            -11.0697 ZZZX=             29.3193
 ZZZY=            -32.3719 XXYY=            -45.3463 XXZZ=            -73.9024 YYZZ=            -65.8574
 XXYZ=             -7.0438 YYXZ=              7.0286 ZZXY=             22.0797
 N-N= 1.922110397027D+02 E-N=-1.006068380836D+03  KE= 2.673458766145D+02
  Exact polarizability:  49.083   2.153  39.415  -4.509   0.044  52.814
 Approx polarizability:  62.974   2.567  54.056  -7.568   0.021  73.883
 PrsmSu:  requested number of processors reduced to:  10 ShMem   1 Linda.
 PrsmSu:  requested number of processors reduced to:  10 ShMem   1 Linda.
 Calling FoFJK, ICntrl=    100127 FMM=F ISym2X=0 I1Cent= 0 IOpClX= 0 NMat=1 NMatS=1 NMatT=0.
 CoulSu:  requested number of processors reduced to:  10 ShMem   1 Linda.
 CalDSu:  requested number of processors reduced to:  23 ShMem   1 Linda.
 -------------------------------------------------------------------
 Center     Atomic                   Forces (Hartrees/Bohr)
 Number     Number              X              Y              Z
 -------------------------------------------------------------------
      1        6          -0.000458724   -0.000198695   -0.005216502
      2        8           0.000870368   -0.000041478   -0.000124422
      3        1           0.000044313    0.000079907   -0.000038279
      4        1           0.000018903    0.000021207   -0.000082537
      5        1          -0.000283663    0.000114190    0.000138097
      6        1           0.000081726    0.000051812    0.000028890
      7        1           0.000084050   -0.000006547    0.000089464
      8        1           0.000256429    0.000585414   -0.000073306
      9        1          -0.000209567    0.000189423    0.000277935
     10        1           0.000083052   -0.000154875   -0.000033590
     11        1          -0.000026622   -0.000094575    0.000057500
     12        6          -0.000029510   -0.000135172   -0.000055454
     13        6          -0.000114622    0.000145662   -0.000133214
     14        8          -0.000316135   -0.000556273    0.000165419
 -------------------------------------------------------------------
 Cartesian Forces:  Max     0.005216502 RMS     0.000838349
 -----------------------------------------------------------------------------------------------
                       Internal Coordinate Forces (Hartree/Bohr or radian)
  Cent   Atom   N1       Length/X         N2         Alpha/Y        N3         Beta/Z          J
 -----------------------------------------------------------------------------------------------
      1  C 
      2  O        1   0.000043(     1)
      3  H        1   0.000042(     2)      2   0.000167(    14)
      4  H        1   0.000004(     3)      2   0.000342(    15)      3   0.000254(    26)     0
      5  H        2  -0.000053(     4)      1   0.000393(    16)      4  -0.000423(    27)     0
      6  H        2  -0.000060(     5)      1   0.000134(    17)      4   0.000053(    28)     0
      7  H        1  -0.000004(     6)      2  -0.000185(    18)      5   0.000171(    29)     0
      8  H        1   0.000344(     7)      2  -0.001493(    19)      5  -0.001301(    30)     0
      9  H        1  -0.000062(     8)      2  -0.001167(    20)      5   0.000837(    31)     0
     10  H        1   0.000089(     9)      2   0.000148(    21)      5  -0.000613(    32)     0
     11  H        1   0.000053(    10)      2  -0.000188(    22)      5  -0.000347(    33)     0
     12  C        1  -0.000077(    11)      2  -0.000088(    23)      5   0.002040(    34)     0
     13  C        1   0.000033(    12)     12   0.000383(    24)      2   0.001247(    35)     0
     14  O       12  -0.000209(    13)      1  -0.000383(    25)     13  -0.001664(    36)     0
 -----------------------------------------------------------------------------------------------
 Internal  Forces:  Max     0.002040478 RMS     0.000669730

 GradGradGradGradGradGradGradGradGradGradGradGradGradGradGradGradGradGrad
 Berny optimization.
 Search for a saddle point.
 Step number   1 out of a maximum of  100
 All quantities printed in internal units (Hartrees-Bohrs-Radians)
 Swaping is turned off.
 Second derivative matrix not updated -- analytic derivatives used.
 ITU=  0
     Eigenvalues ---   -0.00676  -0.00003   0.00032   0.00707   0.01125
     Eigenvalues ---    0.01537   0.01788   0.02120   0.05444   0.05872
     Eigenvalues ---    0.06283   0.07360   0.07517   0.07879   0.11602
     Eigenvalues ---    0.13103   0.21257   0.28392   0.29590   0.34416
     Eigenvalues ---    0.36749   0.50070   0.53576   0.53782   0.53872
     Eigenvalues ---    0.73922   0.99528   1.21068   1.36245   1.42213
     Eigenvalues ---    2.84106   3.16097   6.02232   6.54821  11.97768
     Eigenvalues ---   17.07383
 Eigenvectors required to have negative eigenvalues:
                          B1        B7        A12       D6        A9
   1                    0.63441  -0.50162  -0.29016   0.23014  -0.20685
                          D3        D10       A7        A10       D11
   1                   -0.17970   0.15581  -0.14298  -0.12751   0.11203
 RFO step:  Lambda0=3.598932655D-05 Lambda=-3.95386292D-04.
 Linear search not attempted -- option 19 set.
 Maximum step size (   0.300) exceeded in Quadratic search.
    -- Step size scaled by   0.388
 Variable       Old X    -DE/DX   Delta X   Delta X   Delta X     New X
                                 (Linear)    (Quad)   (Total)
    B1        4.42119   0.00004   0.00000  -0.00598  -0.00598   4.41521
    B2        4.15278   0.00004   0.00000   0.00007   0.00007   4.15285
    B3        4.14232   0.00000   0.00000   0.00220   0.00220   4.14452
    B4        1.82732  -0.00005   0.00000   0.00066   0.00066   1.82798
    B5        1.82767  -0.00006   0.00000   0.00067   0.00067   1.82834
    B6        2.05374   0.00000   0.00000   0.00025   0.00025   2.05399
    B7        4.72959   0.00034   0.00000   0.00265   0.00265   4.73225
    B8        3.95653  -0.00006   0.00000   0.00413   0.00413   3.96066
    B9        4.05859   0.00009   0.00000   0.00740   0.00740   4.06599
   B10        3.99928   0.00005   0.00000  -0.01242  -0.01242   3.98686
   B11        2.78409  -0.00008   0.00000   0.00127   0.00127   2.78536
   B12        2.78622   0.00003   0.00000  -0.00009  -0.00009   2.78612
   B13        2.74629  -0.00021   0.00000  -0.00138  -0.00138   2.74491
    A1        1.52355   0.00017   0.00000   0.02224   0.02224   1.54579
    A2        1.66045   0.00034   0.00000   0.02234   0.02234   1.68279
    A3        2.22816   0.00039   0.00000  -0.03192  -0.03192   2.19625
    A4        2.14699   0.00013   0.00000  -0.03338  -0.03338   2.11361
    A5        1.47740  -0.00019   0.00000  -0.01533  -0.01533   1.46207
    A6        2.47110  -0.00149   0.00000   0.01568   0.01568   2.48679
    A7        2.17619  -0.00117   0.00000  -0.02459  -0.02459   2.15160
    A8        1.53856   0.00015   0.00000   0.05248   0.05248   1.59105
    A9        1.34941  -0.00019   0.00000  -0.05354  -0.05354   1.29587
   A10        1.76280  -0.00009   0.00000   0.02469   0.02469   1.78749
   A11        2.15337   0.00038   0.00000   0.00353   0.00353   2.15690
   A12        1.44046  -0.00038   0.00000   0.00256   0.00256   1.44302
    D1        0.84217   0.00025   0.00000   0.00012   0.00012   0.84229
    D2        1.42825  -0.00042   0.00000  -0.02817  -0.02817   1.40008
    D3       -1.37132   0.00005   0.00000   0.25804   0.25804  -1.11329
    D4       -1.04968   0.00017   0.00000  -0.02574  -0.02574  -1.07542
    D5        0.19309  -0.00130   0.00000  -0.04932  -0.04932   0.14376
    D6       -2.96562   0.00084   0.00000   0.05887   0.05887  -2.90675
    D7        2.69872  -0.00061   0.00000  -0.03262  -0.03262   2.66610
    D8       -2.72077  -0.00035   0.00000  -0.05449  -0.05449  -2.77526
    D9        0.97596   0.00204   0.00000  -0.02872  -0.02872   0.94724
   D10       -1.82331   0.00125   0.00000  -0.01550  -0.01550  -1.83881
   D11        1.44433  -0.00166   0.00000  -0.01500  -0.01500   1.42933
         Item               Value     Threshold  Converged?
 Maximum Force            0.002040     0.000450     NO 
 RMS     Force            0.000670     0.000300     NO 
 Maximum Displacement     0.258036     0.001800     NO 
 RMS     Displacement     0.050000     0.001200     NO 
 Predicted change in Energy=-1.300284D-04
 GradGradGradGradGradGradGradGradGradGradGradGradGradGradGradGradGradGrad

 ---------------------------------------------------------------------------------------------------
                            Z-MATRIX (ANGSTROMS AND DEGREES)
   CD    Cent   Atom    N1       Length/X        N2       Alpha/Y        N3        Beta/Z          J
 ---------------------------------------------------------------------------------------------------
      1      1  C 
      2      2  O        1   2.336430(     1)
      3      3  H        1   2.197593(     2)      2   88.567(    14)
      4      4  H        1   2.193185(     3)      2   96.417(    15)      3   48.260(    26)      0
      5      5  H        2   0.967325(     4)      1  125.836(    16)      4   80.219(    27)      0
      6      6  H        2   0.967513(     5)      1  121.101(    17)      4  -63.787(    28)      0
      7      7  H        1   1.086925(     6)      2   83.770(    18)      5  -61.617(    29)      0
      8      8  H        1   2.504197(     7)      2  142.482(    19)      5    8.237(    30)      0
      9      9  H        1   2.095892(     8)      2  123.278(    20)      5 -166.545(    31)      0
     10     10  H        1   2.151630(     9)      2   91.160(    21)      5  152.757(    32)      0
     11     11  H        1   2.109755(    10)      2   74.248(    22)      5 -159.010(    33)      0
     12     12  C        1   1.473947(    11)      2  102.416(    23)      5   54.273(    34)      0
     13     13  C        1   1.474354(    12)     12  123.582(    24)      2 -105.356(    35)      0
     14     14  O       12   1.452543(    13)      1   82.679(    25)     13   81.895(    36)      0
 ---------------------------------------------------------------------------------------------------
                         Z-Matrix orientation:                         
 ---------------------------------------------------------------------
 Center     Atomic      Atomic             Coordinates (Angstroms)
 Number     Number       Type             X           Y           Z
 ---------------------------------------------------------------------
      1          6           0        0.000000    0.000000    0.000000
      2          8           0        0.000000    0.000000    2.336430
      3          1           0        2.196906    0.000000    0.054945
      4          1           0        1.450982   -1.626232   -0.245117
      5          1           0        0.665344    0.415095    2.902762
      6          1           0       -0.310959   -0.767870    2.836192
      7          1           0       -0.067402    1.078402    0.117950
      8          1           0        1.396213    0.613544   -1.986242
      9          1           0       -1.661627   -0.556098   -1.150006
     10          1           0       -1.101413   -1.847837   -0.043568
     11          1           0       -1.993424   -0.386388    0.572741
     12          6           0        1.331687   -0.546539   -0.316901
     13          6           0       -1.251190   -0.766802   -0.142328
     14          8           0        0.949225   -0.193027   -1.672863
 ---------------------------------------------------------------------
                    Distance matrix (angstroms):
                    1          2          3          4          5
     1  C    0.000000
     2  O    2.336430   0.000000
     3  H    2.197593   3.167265   0.000000
     4  H    2.193185   3.378515   1.814131   0.000000
     5  H    3.006828   0.967325   3.260069   3.833195   0.000000
     6  H    2.954709   0.967513   3.822871   3.651806   1.535254
     7  H    1.086925   2.467620   2.508786   3.122876   2.955007
     8  H    2.504197   4.583812   2.276837   2.837448   4.947313
     9  H    2.095892   3.901985   4.080371   3.413553   4.773148
    10  H    2.151630   3.208115   3.781945   2.569912   4.113776
    11  H    2.109755   2.689541   4.239843   3.751005   3.624971
    12  C    1.473947   3.018651   1.088842   1.088633   3.425636
    13  C    1.474354   2.880573   3.537833   2.837414   3.787157
    14  O    1.933070   4.124648   2.139927   2.084297   4.624581
                    6          7          8          9         10
     6  H    0.000000
     7  H    3.294978   0.000000
     8  H    5.298925   2.604973   0.000000
     9  H    4.214134   2.611677   3.379014   0.000000
    10  H    3.175557   3.107756   4.008804   1.790708   0.000000
    11  H    2.845949   2.462114   4.363243   1.762597   1.819713
    12  C    3.562199   2.187916   2.033877   3.107102   2.772735
    13  C    3.123399   2.207686   3.509147   1.108274   1.095821
    14  O    4.717000   2.420139   0.973941   2.687331   3.098082
                   11         12         13         14
    11  H    0.000000
    12  C    3.445790   0.000000
    13  C    1.098613   2.598123   0.000000
    14  O    3.706657   1.452543   2.741091   0.000000
 Symmetry turned off by external request.
 Stoichiometry    C3H9O2(1+)
 Framework group  C1[X(C3H9O2)]
 Deg. of freedom    36
 Full point group                 C1      NOp   1
 Rotational constants (GHZ):      7.0387398      2.8577204      2.2386152
 Standard basis: 6-31++G(d,p) (6D, 7F)
 The following finite field(s) will be applied:
 An electric field of              0.0000  0.0000  0.0050
 Integral buffers will be    131072 words long.
 Raffenetti 2 integral format.
 Two-electron integral symmetry is turned off.
   149 basis functions,   232 primitive gaussians,   149 cartesian basis functions
    21 alpha electrons       21 beta electrons
       nuclear repulsion energy       192.0871239024 Hartrees.
 NAtoms=   14 NActive=   14 NUniq=   14 SFac= 1.00D+00 NAtFMM=   50 NAOKFM=F Big=F
 One-electron integrals computed using PRISM.
 PrsmSu:  requested number of processors reduced to:  10 ShMem   1 Linda.
 NBasis=   149 RedAO= T  NBF=   149
 NBsUse=   149 1.00D-06 NBFU=   149
 The nuclear repulsion energy is now       192.1401572877 hartrees.
 Initial guess read from the read-write file.
 B after Tr=     0.000000    0.000000    0.000000
         Rot=    1.000000    0.000000    0.000000    0.000000 Ang=   0.00 deg.
 Harris functional with IExCor=  402 diagonalized for initial guess.
 ExpMin= 3.60D-02 ExpMax= 5.48D+03 ExpMxC= 8.25D+02 IAcc=3 IRadAn=         0 AccDes= 0.00D+00
 HarFok:  IExCor=  402 AccDes= 0.00D+00 IRadAn=         0 IDoV= 1
 ScaDFX=  1.000000  1.000000  1.000000  1.000000
 FoFCou: FMM=F IPFlag=           0 FMFlag=      100000 FMFlg1=           0
         NFxFlg=           0 DoJE=T BraDBF=F KetDBF=T FulRan=T
         Omega=  0.000000  0.000000  1.000000  0.000000  0.000000 ICntrl=     500 IOpCl=  0
         NMat0=    1 NMatS0=    1 NMatT0=    0 NMatD0=    1 NMtDS0=    0 NMtDT0=    0
         I1Cent=           4 NGrid=           0.
 Symmetry not used in FoFCou.
 Requested convergence on RMS density matrix=1.00D-08 within 128 cycles.
 Requested convergence on MAX density matrix=1.00D-06.
 Requested convergence on             energy=1.00D-06.
 No special actions if energy rises.
 SCF Done:  E(RB3LYP) =  -269.886480687     A.U. after   11 cycles
             Convg  =    0.5168D-08             -V/T =  2.0096
 Range of M.O.s used for correlation:     1   149
 NBasis=   149 NAE=    21 NBE=    21 NFC=     0 NFV=     0
 NROrb=    149 NOA=    21 NOB=    21 NVA=   128 NVB=   128

 **** Warning!!: The largest alpha MO coefficient is  0.37398395D+02

 PrsmSu:  requested number of processors reduced to:  10 ShMem   1 Linda.
 PrsmSu:  requested number of processors reduced to:  17 ShMem   1 Linda.
 Symmetrizing basis deriv contribution to polar:
 IMax=3 JMax=2 DiffMx= 0.00D+00
 G2DrvN: will do     3 centers at a time, making    5 passes doing MaxLOS=2.
 Estimated number of processors is:   15
 Calling FoFCou, ICntrl=  3107 FMM=F I1Cent=   0 AccDes= 0.00D+00.
 CoulSu:  requested number of processors reduced to:  15 ShMem   1 Linda.
 Calling FoFCou, ICntrl=  3107 FMM=F I1Cent=   0 AccDes= 0.00D+00.
 CoulSu:  requested number of processors reduced to:  15 ShMem   1 Linda.
 Calling FoFCou, ICntrl=  3107 FMM=F I1Cent=   0 AccDes= 0.00D+00.
 CoulSu:  requested number of processors reduced to:  15 ShMem   1 Linda.
 Calling FoFCou, ICntrl=  3107 FMM=F I1Cent=   0 AccDes= 0.00D+00.
 CoulSu:  requested number of processors reduced to:  15 ShMem   1 Linda.
 Calling FoFCou, ICntrl=  3107 FMM=F I1Cent=   0 AccDes= 0.00D+00.
 CoulSu:  requested number of processors reduced to:  15 ShMem   1 Linda.
 FoFDir/FoFCou used for L=0 through L=2.
 End of G2Drv Frequency-dependent properties file   721 does not exist.
 End of G2Drv Frequency-dependent properties file   722 does not exist.
          IDoAtm=11111111111111
          Differentiating once with respect to electric field.
                with respect to dipole field.
          Differentiating once with respect to nuclear coordinates.
 PrRfSu:  requested number of processors reduced to:  16 ShMem   1 Linda.
 CalDSu:  requested number of processors reduced to:  21 ShMem   1 Linda.
 PrRfSu:  requested number of processors reduced to:  16 ShMem   1 Linda.
 CalDSu:  requested number of processors reduced to:  21 ShMem   1 Linda.
          There are    45 degrees of freedom in the 1st order CPHF.  IDoFFX=5.
     45 vectors produced by pass  0 Test12= 5.97D-15 2.22D-09 XBig12= 4.58D+01 4.16D+00.
 AX will form    23 AO Fock derivatives at one time.
 PrRfSu:  requested number of processors reduced to:  16 ShMem   1 Linda.
 CalDSu:  requested number of processors reduced to:  21 ShMem   1 Linda.
 PrRfSu:  requested number of processors reduced to:  16 ShMem   1 Linda.
 CalDSu:  requested number of processors reduced to:  21 ShMem   1 Linda.
     42 vectors produced by pass  1 Test12= 5.97D-15 2.22D-09 XBig12= 8.18D+00 4.36D-01.
 PrRfSu:  requested number of processors reduced to:  16 ShMem   1 Linda.
 CalDSu:  requested number of processors reduced to:  22 ShMem   1 Linda.
 PrRfSu:  requested number of processors reduced to:  16 ShMem   1 Linda.
 CalDSu:  requested number of processors reduced to:  22 ShMem   1 Linda.
     42 vectors produced by pass  2 Test12= 5.97D-15 2.22D-09 XBig12= 4.24D-02 2.83D-02.
 PrRfSu:  requested number of processors reduced to:  16 ShMem   1 Linda.
 CalDSu:  requested number of processors reduced to:  22 ShMem   1 Linda.
 PrRfSu:  requested number of processors reduced to:  16 ShMem   1 Linda.
 CalDSu:  requested number of processors reduced to:  22 ShMem   1 Linda.
     42 vectors produced by pass  3 Test12= 5.97D-15 2.22D-09 XBig12= 1.05D-04 1.69D-03.
 PrRfSu:  requested number of processors reduced to:  16 ShMem   1 Linda.
 CalDSu:  requested number of processors reduced to:  22 ShMem   1 Linda.
 PrRfSu:  requested number of processors reduced to:  16 ShMem   1 Linda.
 CalDSu:  requested number of processors reduced to:  22 ShMem   1 Linda.
     42 vectors produced by pass  4 Test12= 5.97D-15 2.22D-09 XBig12= 9.33D-08 4.32D-05.
 PrRfSu:  requested number of processors reduced to:  16 ShMem   1 Linda.
 CalDSu:  requested number of processors reduced to:  22 ShMem   1 Linda.
 PrRfSu:  requested number of processors reduced to:  16 ShMem   1 Linda.
 CalDSu:  requested number of processors reduced to:  22 ShMem   1 Linda.
     28 vectors produced by pass  5 Test12= 5.97D-15 2.22D-09 XBig12= 7.81D-11 1.03D-06.
 PrRfSu:  requested number of processors reduced to:  16 ShMem   1 Linda.
 CalDSu:  requested number of processors reduced to:  20 ShMem   1 Linda.
      3 vectors produced by pass  6 Test12= 5.97D-15 2.22D-09 XBig12= 6.11D-14 3.66D-08.
 Inverted reduced A of dimension   244 with in-core refinement.
 Isotropic polarizability for W=    0.000000       47.49 Bohr**3.
 End of Minotr Frequency-dependent properties file   721 does not exist.
 End of Minotr Frequency-dependent properties file   722 does not exist.
 PrsmSu:  requested number of processors reduced to:  10 ShMem   1 Linda.
 PrsmSu:  requested number of processors reduced to:  10 ShMem   1 Linda.
 Calling FoFJK, ICntrl=    100127 FMM=F ISym2X=0 I1Cent= 0 IOpClX= 0 NMat=1 NMatS=1 NMatT=0.
 CoulSu:  requested number of processors reduced to:  10 ShMem   1 Linda.
 CalDSu:  requested number of processors reduced to:  23 ShMem   1 Linda.
 -------------------------------------------------------------------
 Center     Atomic                   Forces (Hartrees/Bohr)
 Number     Number              X              Y              Z
 -------------------------------------------------------------------
      1        6          -0.000782044    0.000116372   -0.005012979
      2        8           0.002040565   -0.001134325    0.002753797
      3        1           0.000091842    0.000102007   -0.000008724
      4        1          -0.000019023   -0.000138534   -0.000054960
      5        1           0.000757235    0.002289325   -0.001117303
      6        1          -0.001833570   -0.001225503   -0.001407309
      7        1           0.000155141    0.000007591    0.000030876
      8        1           0.000437601    0.000871195   -0.000224165
      9        1           0.001161039   -0.001482291    0.004947452
     10        1          -0.001228470    0.002744381   -0.000339819
     11        1           0.001662864   -0.001813548   -0.002242704
     12        6          -0.000059618    0.000025847   -0.000128849
     13        6          -0.002018804    0.000495620   -0.002420170
     14        8          -0.000364757   -0.000858138    0.000224854
 -------------------------------------------------------------------
 Cartesian Forces:  Max     0.005012979 RMS     0.001641321
 -----------------------------------------------------------------------------------------------
                       Internal Coordinate Forces (Hartree/Bohr or radian)
  Cent   Atom   N1       Length/X         N2         Alpha/Y        N3         Beta/Z          J
 -----------------------------------------------------------------------------------------------
      1  C 
      2  O        1   0.000229(     1)
      3  H        1   0.000092(     2)      2   0.000046(    14)
      4  H        1   0.000096(     3)      2   0.000184(    15)      3   0.000468(    26)     0
      5  H        2   0.000849(     4)      1  -0.003640(    16)      4   0.001911(    27)     0
      6  H        2   0.000835(     5)      1  -0.003926(    17)      4  -0.001940(    28)     0
      7  H        1   0.000001(     6)      2  -0.000064(    18)      5   0.000317(    29)     0
      8  H        1   0.000635(     7)      2  -0.002173(    19)      5  -0.001791(    30)     0
      9  H        1  -0.003242(     8)      2  -0.015012(    20)      5  -0.005875(    31)     0
     10  H        1  -0.001721(     9)      2   0.001524(    21)      5   0.010002(    32)     0
     11  H        1  -0.001848(    10)      2   0.007212(    22)      5  -0.008046(    33)     0
     12  C        1  -0.000095(    11)      2  -0.003387(    23)      5   0.005766(    34)     0
     13  C        1   0.001689(    12)     12   0.001850(    24)      2  -0.003647(    35)     0
     14  O       12  -0.000323(    13)      1  -0.000279(    25)     13  -0.002444(    36)     0
 -----------------------------------------------------------------------------------------------
 Internal  Forces:  Max     0.015011637 RMS     0.004125048

 GradGradGradGradGradGradGradGradGradGradGradGradGradGradGradGradGradGrad
 Berny optimization.
 Search for a saddle point.
 Step number   2 out of a maximum of  100
 All quantities printed in internal units (Hartrees-Bohrs-Radians)
 Swaping is turned off.
 Second derivative matrix not updated -- analytic derivatives used.
 ITU=  0  0
     Eigenvalues ---   -0.00665   0.00017   0.00630   0.01158   0.01582
     Eigenvalues ---    0.01831   0.02061   0.03138   0.05411   0.05744
     Eigenvalues ---    0.06568   0.07354   0.07592   0.07899   0.11726
     Eigenvalues ---    0.13116   0.21128   0.26664   0.29486   0.34045
     Eigenvalues ---    0.36671   0.50090   0.53387   0.53640   0.53877
     Eigenvalues ---    0.72509   0.99766   1.21889   1.35842   1.44825
     Eigenvalues ---    2.76955   3.04801   5.92464   6.51580  11.98901
     Eigenvalues ---   16.75051
 Eigenvectors required to have negative eigenvalues:
                          B1        B7        A12       D3        D10
   1                    0.66792  -0.50180  -0.29569  -0.18442   0.17783
                          A9        D11       A7        A10       D6
   1                   -0.15114   0.14455  -0.13883  -0.12458   0.10099
 RFO step:  Lambda0=4.381744428D-06 Lambda=-3.47121148D-04.
 Linear search not attempted -- option 19 set.
 Variable       Old X    -DE/DX   Delta X   Delta X   Delta X     New X
                                 (Linear)    (Quad)   (Total)
    B1        4.41521   0.00023   0.00000  -0.02583  -0.02583   4.38938
    B2        4.15285   0.00009   0.00000  -0.00022  -0.00022   4.15262
    B3        4.14452   0.00010   0.00000  -0.00018  -0.00018   4.14434
    B4        1.82798   0.00085   0.00000   0.00031   0.00031   1.82829
    B5        1.82834   0.00083   0.00000   0.00029   0.00029   1.82862
    B6        2.05399   0.00000   0.00000  -0.00007  -0.00007   2.05392
    B7        4.73225   0.00064   0.00000   0.01673   0.01673   4.74898
    B8        3.96066  -0.00324   0.00000  -0.00117  -0.00117   3.95949
    B9        4.06599  -0.00172   0.00000  -0.00091  -0.00091   4.06508
   B10        3.98686  -0.00185   0.00000   0.00145   0.00145   3.98831
   B11        2.78536  -0.00010   0.00000   0.00243   0.00243   2.78778
   B12        2.78612   0.00169   0.00000  -0.00012  -0.00012   2.78600
   B13        2.74491  -0.00032   0.00000  -0.00274  -0.00274   2.74217
    A1        1.54579   0.00005   0.00000   0.00871   0.00871   1.55450
    A2        1.68279   0.00018   0.00000   0.01137   0.01137   1.69417
    A3        2.19625  -0.00364   0.00000  -0.00839  -0.00839   2.18786
    A4        2.11361  -0.00393   0.00000  -0.01328  -0.01328   2.10032
    A5        1.46207  -0.00006   0.00000  -0.00060  -0.00060   1.46147
    A6        2.48679  -0.00217   0.00000   0.00274   0.00274   2.48952
    A7        2.15160  -0.01501   0.00000  -0.00716  -0.00716   2.14444
    A8        1.59105   0.00152   0.00000   0.00602   0.00602   1.59707
    A9        1.29587   0.00721   0.00000  -0.00160  -0.00160   1.29427
   A10        1.78749  -0.00339   0.00000   0.01316   0.01316   1.80065
   A11        2.15690   0.00185   0.00000  -0.00219  -0.00219   2.15471
   A12        1.44302  -0.00028   0.00000   0.01028   0.01028   1.45330
    D1        0.84229   0.00047   0.00000  -0.00018  -0.00018   0.84210
    D2        1.40008   0.00191   0.00000   0.08722   0.08722   1.48731
    D3       -1.11329  -0.00194   0.00000   0.06212   0.06212  -1.05117
    D4       -1.07542   0.00032   0.00000   0.08775   0.08775  -0.98767
    D5        0.14376  -0.00179   0.00000   0.07879   0.07879   0.22255
    D6       -2.90675  -0.00587   0.00000   0.09059   0.09059  -2.81616
    D7        2.66610   0.01000   0.00000   0.08941   0.08941   2.75552
    D8       -2.77526  -0.00805   0.00000   0.07948   0.07948  -2.69577
    D9        0.94724   0.00577   0.00000   0.08595   0.08595   1.03319
   D10       -1.83881  -0.00365   0.00000  -0.00965  -0.00965  -1.84846
   D11        1.42933  -0.00244   0.00000  -0.00632  -0.00632   1.42301
         Item               Value     Threshold  Converged?
 Maximum Force            0.015012     0.000450     NO 
 RMS     Force            0.004125     0.000300     NO 
 Maximum Displacement     0.090593     0.001800     NO 
 RMS     Displacement     0.039865     0.001200     NO 
 Predicted change in Energy=-1.811890D-04
 GradGradGradGradGradGradGradGradGradGradGradGradGradGradGradGradGradGrad

 ---------------------------------------------------------------------------------------------------
                            Z-MATRIX (ANGSTROMS AND DEGREES)
   CD    Cent   Atom    N1       Length/X        N2       Alpha/Y        N3        Beta/Z          J
 ---------------------------------------------------------------------------------------------------
      1      1  C 
      2      2  O        1   2.322759(     1)
      3      3  H        1   2.197474(     2)      2   89.066(    14)
      4      4  H        1   2.193089(     3)      2   97.069(    15)      3   48.249(    26)      0
      5      5  H        2   0.967491(     4)      1  125.355(    16)      4   85.216(    27)      0
      6      6  H        2   0.967667(     5)      1  120.340(    17)      4  -60.227(    28)      0
      7      7  H        1   1.086887(     6)      2   83.736(    18)      5  -56.589(    29)      0
      8      8  H        1   2.513053(     7)      2  142.639(    19)      5   12.751(    30)      0
      9      9  H        1   2.095273(     8)      2  122.867(    20)      5 -161.354(    31)      0
     10     10  H        1   2.151146(     9)      2   91.505(    21)      5  157.880(    32)      0
     11     11  H        1   2.110523(    10)      2   74.156(    22)      5 -154.456(    33)      0
     12     12  C        1   1.475232(    11)      2  103.170(    23)      5   59.197(    34)      0
     13     13  C        1   1.474289(    12)     12  123.456(    24)      2 -105.909(    35)      0
     14     14  O       12   1.451095(    13)      1   83.268(    25)     13   81.532(    36)      0
 ---------------------------------------------------------------------------------------------------
                         Z-Matrix orientation:                         
 ---------------------------------------------------------------------
 Center     Atomic      Atomic             Coordinates (Angstroms)
 Number     Number       Type             X           Y           Z
 ---------------------------------------------------------------------
      1          6           0        0.000000    0.000000    0.000000
      2          8           0        0.000000    0.000000    2.322759
      3          1           0        2.197182    0.000000    0.035807
      4          1           0        1.449269   -1.623708   -0.269874
      5          1           0        0.630446    0.474514    2.882591
      6          1           0       -0.264667   -0.792094    2.811551
      7          1           0       -0.067024    1.078317    0.118591
      8          1           0        1.390807    0.625533   -1.997448
      9          1           0       -1.670671   -0.553217   -1.137092
     10          1           0       -1.104710   -1.844953   -0.056507
     11          1           0       -1.990121   -0.402137    0.576206
     12          6           0        1.329667   -0.543439   -0.336109
     13          6           0       -1.251200   -0.766513   -0.143116
     14          8           0        0.945587   -0.184836   -1.688722
 ---------------------------------------------------------------------
                    Distance matrix (angstroms):
                    1          2          3          4          5
     1  C    0.000000
     2  O    2.322759   0.000000
     3  H    2.197474   3.171397   0.000000
     4  H    2.193089   3.385048   1.813627   0.000000
     5  H    2.988638   0.967491   3.283901   3.874408   0.000000
     6  H    2.932964   0.967667   3.793793   3.622752   1.552601
     7  H    1.086887   2.454714   2.509233   3.122658   2.913888
     8  H    2.513053   4.581466   2.275007   2.836726   4.941229
     9  H    2.095273   3.881721   4.079464   3.410578   4.744389
    10  H    2.151146   3.207046   3.783499   2.572408   4.126620
    11  H    2.110523   2.678198   4.241138   3.746663   3.599348
    12  C    1.475232   3.022072   1.089142   1.088886   3.447487
    13  C    1.474289   2.869422   3.537075   2.836086   3.773015
    14  O    1.944243   4.125564   2.138844   2.082589   4.629359
                    6          7          8          9         10
     6  H    0.000000
     7  H    3.284743   0.000000
     8  H    5.279842   2.609196   0.000000
     9  H    4.198296   2.609660   3.391506   0.000000
    10  H    3.168587   3.106922   4.012251   1.776671   0.000000
    11  H    2.850618   2.469708   4.371552   1.749360   1.807207
    12  C    3.537159   2.188056   2.032309   3.105430   2.774582
    13  C    3.115117   2.207751   3.515188   1.099745   1.091784
    14  O    4.699567   2.426380   0.974798   2.699038   3.102230
                   11         12         13         14
    11  H    0.000000
    12  C    3.445761   0.000000
    13  C    1.093708   2.597669   0.000000
    14  O    3.714229   1.451095   2.748294   0.000000
 Symmetry turned off by external request.
 Stoichiometry    C3H9O2(1+)
 Framework group  C1[X(C3H9O2)]
 Deg. of freedom    36
 Full point group                 C1      NOp   1
 Rotational constants (GHZ):      7.0612343      2.8554561      2.2408818
 Standard basis: 6-31++G(d,p) (6D, 7F)
 The following finite field(s) will be applied:
 An electric field of              0.0000  0.0000  0.0050
 Integral buffers will be    131072 words long.
 Raffenetti 2 integral format.
 Two-electron integral symmetry is turned off.
   149 basis functions,   232 primitive gaussians,   149 cartesian basis functions
    21 alpha electrons       21 beta electrons
       nuclear repulsion energy       192.1521250971 Hartrees.
 NAtoms=   14 NActive=   14 NUniq=   14 SFac= 1.00D+00 NAtFMM=   50 NAOKFM=F Big=F
 One-electron integrals computed using PRISM.
 PrsmSu:  requested number of processors reduced to:  10 ShMem   1 Linda.
 NBasis=   149 RedAO= T  NBF=   149
 NBsUse=   149 1.00D-06 NBFU=   149
 The nuclear repulsion energy is now       192.2008873710 hartrees.
 Initial guess read from the read-write file.
 B after Tr=     0.000000    0.000000    0.000000
         Rot=    1.000000    0.000000    0.000000    0.000000 Ang=   0.00 deg.
 Harris functional with IExCor=  402 diagonalized for initial guess.
 ExpMin= 3.60D-02 ExpMax= 5.48D+03 ExpMxC= 8.25D+02 IAcc=3 IRadAn=         0 AccDes= 0.00D+00
 HarFok:  IExCor=  402 AccDes= 0.00D+00 IRadAn=         0 IDoV= 1
 ScaDFX=  1.000000  1.000000  1.000000  1.000000
 FoFCou: FMM=F IPFlag=           0 FMFlag=      100000 FMFlg1=           0
         NFxFlg=           0 DoJE=T BraDBF=F KetDBF=T FulRan=T
         Omega=  0.000000  0.000000  1.000000  0.000000  0.000000 ICntrl=     500 IOpCl=  0
         NMat0=    1 NMatS0=    1 NMatT0=    0 NMatD0=    1 NMtDS0=    0 NMtDT0=    0
         I1Cent=           4 NGrid=           0.
 Symmetry not used in FoFCou.
 Requested convergence on RMS density matrix=1.00D-08 within 128 cycles.
 Requested convergence on MAX density matrix=1.00D-06.
 Requested convergence on             energy=1.00D-06.
 No special actions if energy rises.
 SCF Done:  E(RB3LYP) =  -269.886663061     A.U. after   11 cycles
             Convg  =    0.1894D-08             -V/T =  2.0095
 Range of M.O.s used for correlation:     1   149
 NBasis=   149 NAE=    21 NBE=    21 NFC=     0 NFV=     0
 NROrb=    149 NOA=    21 NOB=    21 NVA=   128 NVB=   128

 **** Warning!!: The largest alpha MO coefficient is  0.38970081D+02

 PrsmSu:  requested number of processors reduced to:  10 ShMem   1 Linda.
 PrsmSu:  requested number of processors reduced to:  17 ShMem   1 Linda.
 Symmetrizing basis deriv contribution to polar:
 IMax=3 JMax=2 DiffMx= 0.00D+00
 G2DrvN: will do     3 centers at a time, making    5 passes doing MaxLOS=2.
 Estimated number of processors is:   15
 Calling FoFCou, ICntrl=  3107 FMM=F I1Cent=   0 AccDes= 0.00D+00.
 CoulSu:  requested number of processors reduced to:  15 ShMem   1 Linda.
 Calling FoFCou, ICntrl=  3107 FMM=F I1Cent=   0 AccDes= 0.00D+00.
 CoulSu:  requested number of processors reduced to:  15 ShMem   1 Linda.
 Calling FoFCou, ICntrl=  3107 FMM=F I1Cent=   0 AccDes= 0.00D+00.
 CoulSu:  requested number of processors reduced to:  15 ShMem   1 Linda.
 Calling FoFCou, ICntrl=  3107 FMM=F I1Cent=   0 AccDes= 0.00D+00.
 CoulSu:  requested number of processors reduced to:  15 ShMem   1 Linda.
 Calling FoFCou, ICntrl=  3107 FMM=F I1Cent=   0 AccDes= 0.00D+00.
 CoulSu:  requested number of processors reduced to:  15 ShMem   1 Linda.
 FoFDir/FoFCou used for L=0 through L=2.
 End of G2Drv Frequency-dependent properties file   721 does not exist.
 End of G2Drv Frequency-dependent properties file   722 does not exist.
          IDoAtm=11111111111111
          Differentiating once with respect to electric field.
                with respect to dipole field.
          Differentiating once with respect to nuclear coordinates.
 PrRfSu:  requested number of processors reduced to:  16 ShMem   1 Linda.
 CalDSu:  requested number of processors reduced to:  21 ShMem   1 Linda.
 PrRfSu:  requested number of processors reduced to:  16 ShMem   1 Linda.
 CalDSu:  requested number of processors reduced to:  21 ShMem   1 Linda.
          There are    45 degrees of freedom in the 1st order CPHF.  IDoFFX=5.
     45 vectors produced by pass  0 Test12= 5.97D-15 2.22D-09 XBig12= 4.67D+01 4.25D+00.
 AX will form    23 AO Fock derivatives at one time.
 PrRfSu:  requested number of processors reduced to:  16 ShMem   1 Linda.
 CalDSu:  requested number of processors reduced to:  21 ShMem   1 Linda.
 PrRfSu:  requested number of processors reduced to:  16 ShMem   1 Linda.
 CalDSu:  requested number of processors reduced to:  21 ShMem   1 Linda.
     42 vectors produced by pass  1 Test12= 5.97D-15 2.22D-09 XBig12= 8.31D+00 4.52D-01.
 PrRfSu:  requested number of processors reduced to:  16 ShMem   1 Linda.
 CalDSu:  requested number of processors reduced to:  22 ShMem   1 Linda.
 PrRfSu:  requested number of processors reduced to:  16 ShMem   1 Linda.
 CalDSu:  requested number of processors reduced to:  22 ShMem   1 Linda.
     42 vectors produced by pass  2 Test12= 5.97D-15 2.22D-09 XBig12= 4.25D-02 2.86D-02.
 PrRfSu:  requested number of processors reduced to:  16 ShMem   1 Linda.
 CalDSu:  requested number of processors reduced to:  22 ShMem   1 Linda.
 PrRfSu:  requested number of processors reduced to:  16 ShMem   1 Linda.
 CalDSu:  requested number of processors reduced to:  22 ShMem   1 Linda.
     42 vectors produced by pass  3 Test12= 5.97D-15 2.22D-09 XBig12= 1.06D-04 1.70D-03.
 PrRfSu:  requested number of processors reduced to:  16 ShMem   1 Linda.
 CalDSu:  requested number of processors reduced to:  22 ShMem   1 Linda.
 PrRfSu:  requested number of processors reduced to:  16 ShMem   1 Linda.
 CalDSu:  requested number of processors reduced to:  22 ShMem   1 Linda.
     42 vectors produced by pass  4 Test12= 5.97D-15 2.22D-09 XBig12= 9.25D-08 3.75D-05.
 PrRfSu:  requested number of processors reduced to:  16 ShMem   1 Linda.
 CalDSu:  requested number of processors reduced to:  22 ShMem   1 Linda.
 PrRfSu:  requested number of processors reduced to:  16 ShMem   1 Linda.
 CalDSu:  requested number of processors reduced to:  22 ShMem   1 Linda.
     27 vectors produced by pass  5 Test12= 5.97D-15 2.22D-09 XBig12= 7.56D-11 9.62D-07.
 PrRfSu:  requested number of processors reduced to:  16 ShMem   1 Linda.
 CalDSu:  requested number of processors reduced to:  21 ShMem   1 Linda.
      3 vectors produced by pass  6 Test12= 5.97D-15 2.22D-09 XBig12= 5.91D-14 3.58D-08.
 Inverted reduced A of dimension   243 with in-core refinement.
 Isotropic polarizability for W=    0.000000       47.57 Bohr**3.
 End of Minotr Frequency-dependent properties file   721 does not exist.
 End of Minotr Frequency-dependent properties file   722 does not exist.
 PrsmSu:  requested number of processors reduced to:  10 ShMem   1 Linda.
 PrsmSu:  requested number of processors reduced to:  10 ShMem   1 Linda.
 Calling FoFJK, ICntrl=    100127 FMM=F ISym2X=0 I1Cent= 0 IOpClX= 0 NMat=1 NMatS=1 NMatT=0.
 CoulSu:  requested number of processors reduced to:  10 ShMem   1 Linda.
 CalDSu:  requested number of processors reduced to:  23 ShMem   1 Linda.
 -------------------------------------------------------------------
 Center     Atomic                   Forces (Hartrees/Bohr)
 Number     Number              X              Y              Z
 -------------------------------------------------------------------
      1        6          -0.001119833    0.000137931   -0.005029256
      2        8           0.001175410   -0.000339404    0.000014904
      3        1          -0.000006947    0.000001192   -0.000005262
      4        1          -0.000016255   -0.000039479   -0.000003389
      5        1          -0.000080152    0.000161315   -0.000007558
      6        1          -0.000019016   -0.000015742   -0.000008988
      7        1           0.000025346    0.000002351   -0.000010965
      8        1          -0.000001529   -0.000000916   -0.000008701
      9        1          -0.000076649    0.000075847   -0.000078301
     10        1          -0.000018841    0.000051633   -0.000025716
     11        1          -0.000017256   -0.000007763    0.000049964
     12        6           0.000046951    0.000039665    0.000031172
     13        6           0.000111672   -0.000061701    0.000076036
     14        8          -0.000002901   -0.000004929    0.000006061
 -------------------------------------------------------------------
 Cartesian Forces:  Max     0.005029256 RMS     0.000818689
 -----------------------------------------------------------------------------------------------
                       Internal Coordinate Forces (Hartree/Bohr or radian)
  Cent   Atom   N1       Length/X         N2         Alpha/Y        N3         Beta/Z          J
 -----------------------------------------------------------------------------------------------
      1  C 
      2  O        1  -0.000002(     1)
      3  H        1  -0.000007(     2)      2   0.000021(    14)
      4  H        1   0.000019(     3)      2   0.000004(    15)      3  -0.000002(    26)     0
      5  H        2   0.000023(     4)      1  -0.000046(    16)      4   0.000180(    27)     0
      6  H        2   0.000014(     5)      1  -0.000034(    17)      4  -0.000021(    28)     0
      7  H        1   0.000000(     6)      2   0.000023(    18)      5   0.000052(    29)     0
      8  H        1   0.000006(     7)      2   0.000032(    19)      5   0.000001(    30)     0
      9  H        1   0.000084(     8)      2   0.000155(    20)      5   0.000320(    31)     0
     10  H        1  -0.000034(     9)      2   0.000108(    21)      5   0.000173(    32)     0
     11  H        1   0.000031(    10)      2  -0.000172(    22)      5  -0.000016(    33)     0
     12  C        1   0.000018(    11)      2  -0.000020(    23)      5  -0.000446(    34)     0
     13  C        1  -0.000070(    12)     12  -0.000225(    24)      2   0.000253(    35)     0
     14  O       12  -0.000006(    13)      1  -0.000008(    25)     13  -0.000013(    36)     0
 -----------------------------------------------------------------------------------------------
 Internal  Forces:  Max     0.000445709 RMS     0.000125617

 GradGradGradGradGradGradGradGradGradGradGradGradGradGradGradGradGradGrad
 Berny optimization.
 Search for a saddle point.
 Step number   3 out of a maximum of  100
 All quantities printed in internal units (Hartrees-Bohrs-Radians)
 Swaping is turned off.
 Second derivative matrix not updated -- analytic derivatives used.
 ITU=  0  0  0
     Eigenvalues ---   -0.00815   0.00014   0.00237   0.00891   0.01212
     Eigenvalues ---    0.01729   0.01986   0.02190   0.05239   0.05775
     Eigenvalues ---    0.06401   0.07331   0.07526   0.07836   0.11790
     Eigenvalues ---    0.13308   0.21043   0.26302   0.29319   0.34090
     Eigenvalues ---    0.36672   0.49897   0.53136   0.53574   0.53674
     Eigenvalues ---    0.72572   1.00105   1.21310   1.35495   1.44690
     Eigenvalues ---    2.83717   3.12904   5.97525   6.62807  12.14831
     Eigenvalues ---   16.75361
 Eigenvectors required to have negative eigenvalues:
                          B1        B7        A12       D6        D3
   1                    0.64462  -0.46731  -0.28185   0.23636  -0.20743
                          A9        A7        D10       A5        D11
   1                   -0.19564  -0.16049   0.12546  -0.11849   0.11245
 RFO step:  Lambda0=1.416489326D-06 Lambda=-5.39454560D-05.
 Linear search not attempted -- option 19 set.
 Maximum step size (   0.300) exceeded in Quadratic search.
    -- Step size scaled by   0.600
 Variable       Old X    -DE/DX   Delta X   Delta X   Delta X     New X
                                 (Linear)    (Quad)   (Total)
    B1        4.38938   0.00000   0.00000  -0.01294  -0.01294   4.37644
    B2        4.15262  -0.00001   0.00000  -0.00089  -0.00089   4.15173
    B3        4.14434   0.00002   0.00000  -0.00053  -0.00053   4.14381
    B4        1.82829   0.00002   0.00000   0.00020   0.00020   1.82849
    B5        1.82862   0.00001   0.00000   0.00013   0.00013   1.82876
    B6        2.05392   0.00000   0.00000   0.00027   0.00027   2.05419
    B7        4.74898   0.00001   0.00000   0.01305   0.01305   4.76203
    B8        3.95949   0.00008   0.00000  -0.00052  -0.00052   3.95897
    B9        4.06508  -0.00003   0.00000   0.00091   0.00091   4.06599
   B10        3.98831   0.00003   0.00000  -0.00373  -0.00373   3.98458
   B11        2.78778   0.00002   0.00000   0.00124   0.00124   2.78903
   B12        2.78600  -0.00007   0.00000  -0.00096  -0.00096   2.78504
   B13        2.74217  -0.00001   0.00000  -0.00165  -0.00165   2.74052
    A1        1.55450   0.00002   0.00000   0.00024   0.00024   1.55474
    A2        1.69417   0.00000   0.00000  -0.00286  -0.00286   1.69131
    A3        2.18786  -0.00005   0.00000  -0.00911  -0.00911   2.17875
    A4        2.10032  -0.00003   0.00000   0.00047   0.00047   2.10080
    A5        1.46147   0.00002   0.00000   0.00512   0.00512   1.46659
    A6        2.48952   0.00003   0.00000   0.00090   0.00090   2.49042
    A7        2.14444   0.00016   0.00000  -0.00431  -0.00431   2.14012
    A8        1.59707   0.00011   0.00000   0.01332   0.01332   1.61039
    A9        1.29427  -0.00017   0.00000  -0.00790  -0.00790   1.28637
   A10        1.80065  -0.00002   0.00000   0.00029   0.00029   1.80094
   A11        2.15471  -0.00023   0.00000   0.00036   0.00036   2.15507
   A12        1.45330  -0.00001   0.00000   0.00653   0.00653   1.45983
    D1        0.84210   0.00000   0.00000   0.00030   0.00030   0.84240
    D2        1.48731   0.00018   0.00000   0.10085   0.10085   1.58816
    D3       -1.05117  -0.00002   0.00000   0.11680   0.11680  -0.93437
    D4       -0.98767   0.00005   0.00000   0.10093   0.10093  -0.88674
    D5        0.22255   0.00000   0.00000   0.10999   0.10999   0.33253
    D6       -2.81616   0.00032   0.00000   0.11782   0.11782  -2.69834
    D7        2.75552   0.00017   0.00000   0.10110   0.10110   2.85661
    D8       -2.69577  -0.00002   0.00000   0.09340   0.09340  -2.60237
    D9        1.03319  -0.00045   0.00000   0.10119   0.10119   1.13438
   D10       -1.84846   0.00025   0.00000  -0.00304  -0.00304  -1.85150
   D11        1.42301  -0.00001   0.00000  -0.00729  -0.00729   1.41572
         Item               Value     Threshold  Converged?
 Maximum Force            0.000446     0.000450     YES
 RMS     Force            0.000126     0.000300     YES
 Maximum Displacement     0.117818     0.001800     NO 
 RMS     Displacement     0.050000     0.001200     NO 
 Predicted change in Energy=-2.449504D-05
 GradGradGradGradGradGradGradGradGradGradGradGradGradGradGradGradGradGrad

 ---------------------------------------------------------------------------------------------------
                            Z-MATRIX (ANGSTROMS AND DEGREES)
   CD    Cent   Atom    N1       Length/X        N2       Alpha/Y        N3        Beta/Z          J
 ---------------------------------------------------------------------------------------------------
      1      1  C 
      2      2  O        1   2.315914(     1)
      3      3  H        1   2.197001(     2)      2   89.080(    14)
      4      4  H        1   2.192809(     3)      2   96.905(    15)      3   48.266(    26)      0
      5      5  H        2   0.967597(     4)      1  124.833(    16)      4   90.995(    27)      0
      6      6  H        2   0.967737(     5)      1  120.367(    17)      4  -53.535(    28)      0
      7      7  H        1   1.087031(     6)      2   84.029(    18)      5  -50.807(    29)      0
      8      8  H        1   2.519957(     7)      2  142.691(    19)      5   19.053(    30)      0
      9      9  H        1   2.094999(     8)      2  122.620(    20)      5 -154.604(    31)      0
     10     10  H        1   2.151629(     9)      2   92.269(    21)      5  163.672(    32)      0
     11     11  H        1   2.108551(    10)      2   73.703(    22)      5 -149.105(    33)      0
     12     12  C        1   1.475890(    11)      2  103.186(    23)      5   64.995(    34)      0
     13     13  C        1   1.473780(    12)     12  123.477(    24)      2 -106.083(    35)      0
[...]
    B7        4.77132   0.00002   0.00000   0.00021   0.00021   4.77152
    B8        3.95806  -0.00001   0.00000  -0.00002  -0.00002   3.95804
    B9        4.06596   0.00000   0.00000   0.00000   0.00000   4.06596
   B10        3.98384   0.00000   0.00000   0.00004   0.00004   3.98388
   B11        2.78983   0.00000   0.00000   0.00002   0.00002   2.78985
   B12        2.78448   0.00001   0.00000   0.00000   0.00000   2.78448
   B13        2.73947  -0.00001   0.00000  -0.00002  -0.00002   2.73945
    A1        1.55342   0.00000   0.00000  -0.00003  -0.00003   1.55339
    A2        1.68921   0.00000   0.00000   0.00000   0.00000   1.68921
    A3        2.17597   0.00000   0.00000   0.00001   0.00001   2.17598
    A4        2.10603   0.00000   0.00000   0.00003   0.00003   2.10606
    A5        1.46940   0.00000   0.00000  -0.00002  -0.00002   1.46938
    A6        2.48909  -0.00006   0.00000  -0.00008  -0.00008   2.48902
    A7        2.14108  -0.00003   0.00000   0.00009   0.00009   2.14116
    A8        1.61496   0.00000   0.00000   0.00009   0.00009   1.61505
    A9        1.28685   0.00002   0.00000   0.00011   0.00011   1.28696
   A10        1.80021  -0.00001   0.00000   0.00000   0.00000   1.80021
   A11        2.15500   0.00001   0.00000  -0.00002  -0.00002   2.15498
   A12        1.46431  -0.00002   0.00000   0.00009   0.00009   1.46440
    D1        0.84247   0.00001   0.00000   0.00000   0.00000   0.84247
    D2        1.62810   0.00000   0.00000  -0.00061  -0.00061   1.62749
    D3       -0.90218   0.00000   0.00000  -0.00076  -0.00076  -0.90294
    D4       -0.84656   0.00000   0.00000  -0.00060  -0.00060  -0.84715
    D5        0.37845  -0.00004   0.00000  -0.00057  -0.00057   0.37789
    D6       -2.65420  -0.00001   0.00000  -0.00058  -0.00058  -2.65478
    D7        2.89713   0.00001   0.00000  -0.00060  -0.00060   2.89653
    D8       -2.56399  -0.00002   0.00000  -0.00062  -0.00062  -2.56461
    D9        1.17442   0.00006   0.00000  -0.00062  -0.00062   1.17380
   D10       -1.85403   0.00005   0.00000  -0.00012  -0.00012  -1.85415
   D11        1.41204  -0.00007   0.00000  -0.00008  -0.00008   1.41197
         Item               Value     Threshold  Converged?
 Maximum Force            0.000069     0.000450     YES
 RMS     Force            0.000023     0.000300     YES
 Maximum Displacement     0.000757     0.001800     YES
 RMS     Displacement     0.000301     0.001200     YES
 Predicted change in Energy=-1.657574D-09
 Optimization completed.
    -- Stationary point found.
                       ----------------------------
                       !   Optimized Parameters   !
                       ! (Angstroms and Degrees)  !
 ----------------------                            ----------------------
 !      Name          Value   Derivative information (Atomic Units)     !
 ------------------------------------------------------------------------
 !       B1          2.3107   -DE/DX =    0.0                           !
 !       B2          2.1965   -DE/DX =    0.0                           !
 !       B3          2.1926   -DE/DX =    0.0                           !
 !       B4          0.9676   -DE/DX =    0.0                           !
 !       B5          0.9677   -DE/DX =    0.0                           !
 !       B6          1.0871   -DE/DX =    0.0                           !
 !       B7          2.5249   -DE/DX =    0.0                           !
 !       B8          2.0945   -DE/DX =    0.0                           !
 !       B9          2.1516   -DE/DX =    0.0                           !
 !       B10         2.1082   -DE/DX =    0.0                           !
 !       B11         1.4763   -DE/DX =    0.0                           !
 !       B12         1.4735   -DE/DX =    0.0                           !
 !       B13         1.4497   -DE/DX =    0.0                           !
 !       A1         89.0045   -DE/DX =    0.0                           !
 !       A2         96.7847   -DE/DX =    0.0                           !
 !       A3        124.6739   -DE/DX =    0.0                           !
 !       A4        120.6668   -DE/DX =    0.0                           !
 !       A5         84.1904   -DE/DX =    0.0                           !
 !       A6        142.6145   -DE/DX =   -0.0001                        !
 !       A7        122.6746   -DE/DX =    0.0                           !
 !       A8         92.5305   -DE/DX =    0.0                           !
 !       A9         73.7308   -DE/DX =    0.0                           !
 !       A10       103.1444   -DE/DX =    0.0                           !
 !       A11       123.4723   -DE/DX =    0.0                           !
 !       A12        83.8988   -DE/DX =    0.0                           !
 !       D1         48.2701   -DE/DX =    0.0                           !
 !       D2         93.2833   -DE/DX =    0.0                           !
 !       D3        -51.6911   -DE/DX =    0.0                           !
 !       D4        -48.5041   -DE/DX =    0.0                           !
 !       D5         21.6838   -DE/DX =    0.0                           !
 !       D6       -152.0744   -DE/DX =    0.0                           !
 !       D7        165.993    -DE/DX =    0.0                           !
 !       D8       -146.9058   -DE/DX =    0.0                           !
 !       D9         67.2892   -DE/DX =    0.0001                        !
 !       D10      -106.228    -DE/DX =    0.0001                        !
 !       D11        80.9041   -DE/DX =   -0.0001                        !
 ------------------------------------------------------------------------
 GradGradGradGradGradGradGradGradGradGradGradGradGradGradGradGradGradGrad

 1\1\GINC-C24N05\Freq\RB3LYP\6-31++G(d,p)\C3H9O2(1+)\ROOT\08-Mar-2018\1
 \\#N Geom=AllCheck Guess=TCheck SCRF=Check GenChk RB3LYP/6-31++G(d,p) 
 Freq\\Title Card Required\\1,1\C\O,1,B1\H,1,B2,2,A1\H,1,B3,2,A2,3,D1,0
 \H,2,B4,1,A3,4,D2,0\H,2,B5,1,A4,4,D3,0\H,1,B6,2,A5,5,D4,0\H,1,B7,2,A6,
 5,D5,0\H,1,B8,2,A7,5,D6,0\H,1,B9,2,A8,5,D7,0\H,1,B10,2,A9,5,D8,0\C,1,B
 11,2,A10,5,D9,0\C,1,B12,12,A11,2,D10,0\O,12,B13,1,A12,13,D11,0\\B1=2.3
 1073799\B2=2.19650843\B3=2.19257982\B4=0.9676182\B5=0.9677327\B6=1.087
 10061\B7=2.52487124\B8=2.09451472\B9=2.15161201\B10=2.10815866\B11=1.4
 7631319\B12=1.47348256\B13=1.44966389\A1=89.00453524\A2=96.78471692\A3
 =124.67391303\A4=120.66675026\A5=84.1904325\A6=142.61447308\A7=122.674
 58849\A8=92.53045435\A9=73.73080299\A10=103.14436007\A11=123.47230314\
 A12=83.89884494\D1=48.27005901\D2=93.28334545\D3=-51.69105506\D4=-48.5
 0408928\D5=21.68379432\D6=-152.07442302\D7=165.99303934\D8=-146.905758
 37\D9=67.28924298\D10=-106.22800191\D11=80.90412804\\Version=EM64L-G09
 RevB.01\HF=-269.8866871\RMSD=1.935e-09\RMSF=8.101e-04\ZeroPoint=0.1202
 126\Thermal=0.1282737\Dipole=0.5746367,0.4316184,0.3900282\DipoleDeriv
 =0.8352415,0.1299661,-0.1635173,0.2518759,0.2810374,-0.0478349,-0.3803
 818,0.0422211,1.4324115,-0.5643502,0.0308502,-0.0001045,0.0229022,-0.4
 835252,-0.036703,0.09277,-0.0752086,-0.8663795,0.0292192,-0.0226747,-0
 .0367218,-0.0507562,0.0526351,-0.0185793,-0.0342653,0.0083303,0.047102
 9,0.0814691,-0.0240856,-0.0115215,0.0098936,0.0191936,0.0273472,-0.014
 4378,0.0085089,0.073183,0.3156879,-0.0277026,0.0028906,-0.0286753,0.33
 83738,0.0674785,-0.0445798,0.0083157,0.2212377,0.3395947,-0.0070571,-0
 .0285143,0.0027691,0.2787649,-0.0358372,-0.0245475,0.0094448,0.2356311
 ,0.045382,-0.0240993,0.019726,-0.0278266,0.0528241,-0.0021992,0.009078
 6,-0.0070075,0.0258725,0.3123133,-0.0146577,-0.0564533,0.0722191,0.311
 3366,-0.188288,-0.0585797,-0.0568501,0.3636764,0.1755536,0.0029244,0.0
 379511,-0.0804572,0.0983614,0.0399105,0.049074,0.0417713,0.1132149,0.0
 520874,0.0558532,-0.0000054,0.0089596,-0.000031,0.0183263,0.0270245,0.
 0259188,0.1080689,0.1396961,0.0139947,0.0404089,-0.0576672,0.0590862,-
 0.040932,0.0761733,-0.0211194,0.085021,0.3319489,-0.0263747,-0.1148495
 ,-0.1261115,0.2810451,0.034371,0.1947119,-0.1073161,0.335133,-0.479077
 ,-0.1159006,-0.071184,-0.0283151,0.0241223,-0.0196153,-0.1999003,-0.04
 6875,-0.1337767,-0.6147665,0.0289636,0.381895,0.0311895,-0.3132244,0.2
 025554,0.30786,0.1698658,-1.0403967\Polar=48.8862045,1.9719389,39.7690
 766,-4.4533209,0.0995548,54.5402823\PG=C01 [X(C3H9O2)]\NImag=1\\0.5496
 0402,-0.01248775,0.65633033,-0.00461230,0.06844917,0.12315654,-0.00681
 538,-0.00343948,0.00768176,0.20631905,-0.00173204,-0.01278434,0.000861
 74,0.25124451,0.58194719,0.00746941,-0.00001153,0.01084626,0.14922092,
 -0.06313103,0.38350291,-0.01941271,-0.01642729,-0.00740625,0.00101677,
 0.00028040,-0.00036686,0.24057123,0.01147663,0.00714283,0.00360015,0.0
 0024334,-0.00019904,0.00013983,0.12085977,0.13163962,0.01286456,0.0126
 3728,0.00361767,-0.00043353,-0.00012969,0.00044011,0.08179010,0.048481
 26,0.08716512,-0.00234068,0.03074816,0.00085170,0.00003533,-0.00038200
 ,-0.00014403,0.00591882,-0.02400271,0.00203053,0.05712569,0.00030163,-
 0.00738978,-0.00009268,-0.00017047,0.00044273,-0.00013561,0.00260721,-
 0.00988625,0.00041377,-0.03097913,0.34954007,0.00068561,-0.01664493,-0
 .00059645,-0.00026787,0.00062699,0.00049433,0.00201153,-0.00978324,0.0
 0401755,0.00412759,-0.02001026,0.05645489,-0.00049044,0.00147843,-0.00
 534858,-0.17590984,-0.18715104,-0.15817037,-0.00030322,-0.00005939,0.0
 0028802,-0.00005432,0.00000787,-0.00004639,0.17963821,0.00031347,0.000
 72648,-0.00575123,-0.16159131,-0.19623923,-0.12264179,0.00003991,0.000
 21505,-0.00006703,-0.00002170,-0.00009599,-0.00014639,0.18462068,0.214
 80702,-0.00146482,-0.00184358,0.00594493,-0.18074164,-0.16931101,-0.19
 897495,0.00057336,-0.00003507,-0.00025625,0.00006254,-0.00001298,0.000
 08986,0.16802847,0.15164734,0.18724375,0.00089732,0.00094365,0.0013840
 0,-0.02452733,-0.05963592,0.00780444,-0.00007932,-0.00013050,0.0000715
 9,0.00001592,0.00020591,0.00026563,-0.00383342,-0.02387099,0.01499509,
 0.02887345,0.00119504,0.00130984,0.00648111,-0.08598449,-0.37707778,0.
 18636485,-0.00010184,-0.00002181,0.00008325,0.00013650,-0.00009528,-0.
 00017541,0.00142409,-0.01951130,0.01927980,0.08342069,0.39508234,0.001
 06955,0.00454206,0.00484690,0.03095476,0.23260468,-0.16897763,0.000005
 25,0.00000673,0.00008758,0.00031045,-0.00029721,-0.00031273,-0.0072697
 3,-0.02632303,0.01119857,-0.02403090,-0.20894224,0.15708492,-0.0578658
 3,0.01449497,0.00580310,-0.00030737,-0.00033377,0.00028220,0.00123080,
 -0.00025336,-0.00087637,-0.00401168,0.00042961,0.00289508,0.00023995,0
 .00012665,-0.00042405,-0.00020645,0.00002442,0.00011719,0.05977373,0.0
 1753083,-0.35112560,-0.03501814,0.00052406,0.00164204,-0.00075701,-0.0
 0003270,0.00089256,-0.00023328,0.00106649,0.00096786,-0.00035713,-0.00
 011724,0.00012080,0.00028156,-0.00019359,-0.00006665,-0.00064135,-0.01
 684648,0.35935647,-0.00455019,-0.02662228,-0.04226351,-0.00010062,0.00
 422653,-0.00604222,0.00044719,-0.00017741,-0.00005961,-0.00067235,0.00
 048676,0.00035620,-0.00015929,0.00083405,-0.00102030,-0.00009387,-0.00
 071326,-0.00138761,-0.00503390,0.03592457,0.03879503,-0.00148798,-0.00
 624226,-0.00246685,0.00017525,0.00021527,-0.00020558,0.00123240,0.0005
 0407,-0.00113757,-0.00062551,0.00143332,-0.00495525,0.00003390,0.00002
 292,0.00008971,-0.00007558,-0.00000619,0.00000722,0.00004382,0.0007389
 7,-0.00011688,0.12276515,-0.00607300,0.00454737,0.00694868,0.00001173,
 -0.00032566,-0.00189470,-0.00021743,0.00256194,-0.00156362,0.00022796,
 0.00032451,0.00269659,0.00022408,0.00033487,-0.00018692,-0.00002965,-0
 .00024277,-0.00007128,0.00043507,0.00017030,-0.00002744,0.18783122,0.3
 4673156,-0.00215260,0.00681275,-0.00461534,-0.00017827,-0.00060821,0.0
 0007425,-0.00100203,0.00008645,0.00277357,0.00040673,-0.00074734,-0.00
 343900,0.00017975,0.00001961,-0.00023540,0.00002190,0.00006565,0.00008
 229,0.00094291,-0.00074976,0.00048591,-0.05846020,-0.12904022,0.090801
 79,-0.02039829,0.00683840,-0.02471653,0.00001462,0.00000141,0.00098566
 ,-0.00062549,0.00011590,0.00038879,0.00013201,-0.00003665,-0.00003069,
 0.00019899,0.00000947,0.00009368,-0.00015311,-0.00005710,-0.00001801,0
 .00044254,-0.00041252,0.00114136,-0.00019302,0.00040780,0.00044952,0.0
 8782966,-0.00185782,0.00487046,-0.01615161,-0.00084055,-0.00048449,-0.
 00139942,-0.00014053,0.00018463,-0.00011909,-0.00020550,0.00003980,0.0
 0009496,0.00000222,0.00034685,-0.00052104,-0.00023300,-0.00033997,-0.0
 0039946,0.00027445,0.00004777,0.00170395,-0.00046199,0.00059405,-0.000
 09623,-0.02245901,0.05709203,-0.00270214,-0.00242992,-0.00271976,-0.00
 043066,-0.00047558,0.00056819,0.00007609,-0.00000689,0.00012238,0.0000
 7164,-0.00004479,0.00005104,-0.00011422,0.00014657,0.00001059,0.000186
 01,0.00007240,0.00016459,-0.00048119,-0.00036079,0.00115540,0.00071381
 ,-0.00065644,-0.00011270,0.10290260,-0.05735285,0.27195786,0.00394460,
 -0.03449489,0.00110624,0.00018486,0.00040096,0.00027535,0.00022684,0.0
 0022149,-0.00028495,-0.00038753,0.00076649,0.00002053,-0.00004498,-0.0
 0006583,0.00010268,0.00013779,-0.00002073,-0.00025618,-0.00466020,-0.0
 0206520,-0.00114772,-0.00002747,0.00013175,-0.00000718,-0.00192907,0.0
 1264183,0.00098612,0.06022776,0.00096896,-0.01640165,0.00061356,0.0001
 5969,0.00060444,0.00013844,0.00015216,0.00029124,-0.00023654,-0.000843
 47,0.00029852,0.00037227,-0.00005549,-0.00001327,0.00003922,-0.0001265
 2,-0.00025996,-0.00053279,-0.00189403,0.00050791,0.00047523,0.00004725
 ,0.00002290,-0.00002922,0.00098157,-0.00543223,-0.00053349,-0.04007659
 ,0.34231305,-0.00117382,-0.00657249,-0.00095405,0.00007778,0.00042954,
 0.00039163,0.00008186,-0.00008087,0.00002666,0.00003595,0.00001193,0.0
 0026889,-0.00002742,-0.00000047,0.00005253,-0.00017178,-0.00035830,-0.
 00042954,-0.00112368,-0.00077588,0.00290030,-0.00004233,-0.00029758,-0
 .00021456,-0.00309000,0.02765973,0.00022946,0.00250372,-0.01590722,0.0
 4513756,-0.02396862,0.00801285,0.02099455,0.00104296,0.00098295,0.0006
 8953,-0.00075095,0.00019529,0.00077990,0.00027936,-0.00018385,-0.00020
 148,0.00021448,-0.00030168,0.00035484,-0.00034551,0.00005597,-0.000540
 72,0.00109785,-0.00000940,-0.00134687,0.00001698,-0.00008247,-0.000193
 35,0.00895320,-0.00326028,-0.00861724,-0.00175050,0.00043725,0.0006453
 8,0.17803283,-0.00414125,0.00686441,0.01338186,-0.00035940,-0.00056611
 ,-0.00100710,-0.00037568,0.00038700,0.00017281,-0.00022725,0.00019120,
 -0.00017153,-0.00016432,0.00017223,-0.00024333,0.00030998,0.00013950,0
 .00005548,0.00039219,0.00074713,0.00008464,-0.00043541,0.00060666,0.00
 004675,-0.00369047,0.00136365,0.00425220,0.01973452,-0.00505286,-0.021
 07365,-0.05921785,0.07683245,-0.00687282,0.00114794,0.00227790,-0.0004
 9854,-0.00058282,-0.00094462,-0.00042962,-0.00001545,0.00038468,0.0000
 8090,-0.00006487,-0.00001634,-0.00020973,0.00003464,-0.00035629,-0.000
 64947,0.00028234,-0.00034621,0.00036115,-0.00006424,0.00057737,0.00024
 201,-0.00030480,-0.00002676,0.01973975,-0.00835588,-0.01959683,-0.0046
 5677,0.00129920,0.00255521,-0.13615909,0.06433444,0.18079241,-0.257358
 03,0.06719774,0.04082397,0.00004914,-0.00083454,-0.00589344,-0.2295564
 2,-0.11966177,-0.06595546,-0.05957883,0.02555521,-0.00038185,0.0015894
 9,0.00042152,-0.00088559,0.00007672,-0.00092852,-0.00030586,-0.0019222
 7,-0.00102319,0.00592683,0.00556647,-0.00216815,0.01700804,-0.00027718
 ,0.00107372,-0.00152573,0.00263345,0.00129704,-0.00099175,-0.00423142,
 -0.00114277,-0.00260786,0.62095244,0.07491001,-0.12402965,-0.03666324,
 -0.00077069,-0.00094793,0.00427156,-0.11281209,-0.13626438,-0.04483260
 ,0.02113795,-0.33429076,0.00450132,-0.00012553,-0.00038063,0.00011916,
 -0.00062010,0.00112749,0.00109206,0.03105423,-0.00800984,0.00090899,0.
 01859020,-0.00665532,0.02684175,-0.00290581,-0.00172501,0.00057915,-0.
 00134096,0.00141043,0.00100767,-0.00199004,-0.00110199,0.00006425,0.02
 232720,0.67552899,0.00886723,-0.02952738,0.00683126,-0.00074750,0.0003
 9527,-0.00641378,-0.07358014,-0.05018989,-0.07680986,-0.00258558,0.014
 61585,-0.04438783,0.00129768,0.00004108,-0.00146293,0.00074421,-0.0008
 4490,-0.00138569,0.00242303,0.00157102,0.00032336,-0.00578599,-0.01110
 720,-0.01666542,-0.00151193,0.00017217,-0.00102076,0.00076516,-0.00055
 705,-0.00058620,-0.00148005,0.00038176,-0.00163868,0.07315949,0.016655
 78,0.33259272,-0.17925822,-0.06680728,-0.01225465,-0.00268518,-0.00248
 744,-0.00680083,-0.00134813,0.00089527,0.00194985,0.00157166,-0.000831
 65,-0.00136471,-0.00002625,0.00089681,-0.00168232,-0.00043603,-0.00025
 392,-0.00076182,0.00581950,0.00328862,0.00084561,-0.00196233,0.0023350
 3,0.00043500,-0.07529316,0.01680939,-0.09479736,-0.05779032,0.03906863
 ,0.00190497,-0.15999740,0.05275462,0.13009056,-0.01678513,-0.01429970,
 0.00060495,0.50256668,-0.08064685,-0.14860803,-0.01456415,0.00085467,0
 .00127161,0.00021551,0.00328497,-0.00112146,-0.00206693,0.00090336,0.0
 0129794,0.00054286,0.00007204,-0.00027526,0.00062816,-0.00031276,0.000
 42415,-0.00008042,-0.02640718,-0.00953551,-0.00599997,0.00036141,-0.00
 025640,-0.00003577,0.02224003,-0.05659374,0.05545558,0.04406241,-0.318
 33603,0.01567163,0.05578270,-0.08012671,-0.05817480,0.01139569,0.01185
 024,0.00439549,-0.02924381,0.59967381,-0.01251241,-0.00098701,-0.07335
 852,-0.00575616,-0.00531441,-0.00727249,0.00047166,-0.00001938,-0.0011
 8221,-0.00007838,0.00029986,0.00001431,0.00053651,0.00100146,-0.001983
 53,-0.00040078,0.00007812,0.00008401,-0.00157997,-0.00032054,0.0052880
 9,0.00075241,0.00095522,0.00102278,-0.09862875,0.05199388,-0.24698005,
 0.00039179,0.01485599,-0.04729427,0.12768777,-0.06078723,-0.16231220,0
 .01433456,-0.00676720,0.00698498,-0.02772302,0.00242926,0.51321348,0.0
 1495024,0.01018475,-0.02184017,0.00140712,-0.00056876,0.00485361,0.001
 87938,0.00959596,-0.03147546,0.00191978,0.00089451,-0.00275771,-0.0012
 5254,-0.00059991,0.00089805,-0.00034444,0.00109611,0.00071877,0.000325
 60,-0.00244865,0.00486070,-0.12546208,-0.18303396,0.04254976,0.0012983
 2,-0.00134293,0.00373227,-0.00076523,-0.00011647,0.00137112,0.00140674
 ,-0.00343689,0.00156953,-0.06115842,-0.03315466,-0.00217057,-0.0143757
 0,-0.00234667,0.00250477,0.18017121,0.00024214,-0.02145265,0.00790478,
 0.00011838,0.00271657,-0.00015201,0.00288314,0.00417807,-0.01253958,0.
 00244135,-0.00134456,0.03845391,-0.00015640,-0.00020762,0.00015870,0.0
 0027280,-0.00046781,-0.00101323,-0.00149675,0.00428476,-0.01110436,-0.
 20259878,-0.34841401,0.09743379,-0.00103302,0.00003620,0.00135485,0.00
 010475,0.00004752,0.00028595,-0.00042144,-0.00045657,0.00040006,-0.003
 50918,-0.07651164,0.05399799,-0.00212457,0.00033539,0.00258199,0.20527
 759,0.43725635,0.00508475,-0.00895010,-0.03301383,0.00121957,0.0004080
 0,-0.00769199,-0.00267213,0.00799378,-0.02032740,-0.00449768,0.0055775
 8,-0.01299471,0.00101530,0.00120518,-0.00025057,-0.00012608,-0.0016733
 9,-0.00070946,-0.00330551,0.00150098,0.00089158,0.07136549,0.13454971,
 -0.06993140,0.00229456,0.00277090,-0.00382941,0.00020120,0.00000241,-0
 .00208363,-0.00261319,0.00057290,-0.00134961,-0.07270536,0.03222134,-0
 .19636117,0.00955376,0.00158355,0.01377563,-0.00481469,-0.17776284,0.3
 3387598\\0.00111668,-0.00014680,0.00500216,-0.00111815,0.00013923,-0.0
 0000235,0.00000081,0.00000428,0.00000013,0.00000099,-0.00000085,0.0000
 0079,0.00000060,-0.00000022,0.00000133,0.00000166,0.00000057,-0.000000
 25,-0.00000213,-0.00000021,-0.00000181,-0.00001252,-0.00002072,0.00000
 562,-0.00000123,0.00000157,-0.00000955,0.00000086,-0.00000220,-0.00000
 093,-0.00000332,0.00000432,0.00000624,-0.00000439,0.00000027,-0.000000
 02,0.00000686,-0.00000219,0.00000572,0.00001329,0.00002295,-0.00000709
 \\\@


       THE DEATH-KNELL OF THE ATOM

 SO THE ATOMS IN TURN, WE NOW CLEARLY DISCERN,
 FLY TO BITS WITH THE UTMOST FACILITY;
 THEY WEND ON THEIR WAY, AND, IN SPLITTING, DISPLAY
 AN ABSOLUTE LACK OF STABILITY.

          SIR WM. RAMSAY, 1905
 Job cpu time:  0 days  0 hours 10 minutes 12.7 seconds.
 File lengths (MBytes):  RWF=   1280 Int=      0 D2E=      0 Chk=     32 Scr=     32
 Normal termination of Gaussian 09 at Thu Mar  8 14:07:58 2018.
