 Entering Gaussian System, Link 0=g09
 Input=OH-mid-field.gjf
 Output=OH-mid-field.log
 Initial command:
 /share/home/zxchen/g09/l1.exe /scratch/zxchen/Gau-30300.inp -scrdir=/scratch/zxchen/
 Entering Link 1 = /share/home/zxchen/g09/l1.exe PID=     30301.
  
 Copyright (c) 1988,1990,1992,1993,1995,1998,2003,2009,2010,
            Gaussian, Inc.  All Rights Reserved.
  
 This is part of the Gaussian(R) 09 program.  It is based on
 the Gaussian(R) 03 system (copyright 2003, Gaussian, Inc.),
 the Gaussian(R) 98 system (copyright 1998, Gaussian, Inc.),
 the Gaussian(R) 94 system (copyright 1995, Gaussian, Inc.),
 the Gaussian 92(TM) system (copyright 1992, Gaussian, Inc.),
 the Gaussian 90(TM) system (copyright 1990, Gaussian, Inc.),
 the Gaussian 88(TM) system (copyright 1988, Gaussian, Inc.),
 the Gaussian 86(TM) system (copyright 1986, Carnegie Mellon
 University), and the Gaussian 82(TM) system (copyright 1983,
 Carnegie Mellon University). Gaussian is a federally registered
 trademark of Gaussian, Inc.
  
 This software contains proprietary and confidential information,
 including trade secrets, belonging to Gaussian, Inc.
  
 This software is provided under written license and may be
 used, copied, transmitted, or stored only in accord with that
 written license.
  
 The following legend is applicable only to US Government
 contracts under FAR:
  
                    RESTRICTED RIGHTS LEGEND
  
 Use, reproduction and disclosure by the US Government is
 subject to restrictions as set forth in subparagraphs (a)
 and (c) of the Commercial Computer Software - Restricted
 Rights clause in FAR 52.227-19.
  
 Gaussian, Inc.
 340 Quinnipiac St., Bldg. 40, Wallingford CT 06492
  
  
 ---------------------------------------------------------------
 Warning -- This program may not be used in any manner that
 competes with the business of Gaussian, Inc. or will provide
 assistance to any competitor of Gaussian, Inc.  The licensee
 of this program is prohibited from giving any competitor of
 Gaussian, Inc. access to this program.  By using this program,
 the user acknowledges that Gaussian, Inc. is engaged in the
 business of creating and licensing software in the field of
 computational chemistry and represents and warrants to the
 licensee that it is not a competitor of Gaussian, Inc. and that
 it will not use this program in any manner prohibited above.
 ---------------------------------------------------------------
  

 Cite this work as:
 Gaussian 09, Revision B.01,
 M. J. Frisch, G. W. Trucks, H. B. Schlegel, G. E. Scuseria, 
 M. A. Robb, J. R. Cheeseman, G. Scalmani, V. Barone, B. Mennucci, 
 G. A. Petersson, H. Nakatsuji, M. Caricato, X. Li, H. P. Hratchian, 
 A. F. Izmaylov, J. Bloino, G. Zheng, J. L. Sonnenberg, M. Hada, 
 M. Ehara, K. Toyota, R. Fukuda, J. Hasegawa, M. Ishida, T. Nakajima, 
 Y. Honda, O. Kitao, H. Nakai, T. Vreven, J. A. Montgomery, Jr., 
 J. E. Peralta, F. Ogliaro, M. Bearpark, J. J. Heyd, E. Brothers, 
 K. N. Kudin, V. N. Staroverov, T. Keith, R. Kobayashi, J. Normand, 
 K. Raghavachari, A. Rendell, J. C. Burant, S. S. Iyengar, J. Tomasi, 
 M. Cossi, N. Rega, J. M. Millam, M. Klene, J. E. Knox, J. B. Cross, 
 V. Bakken, C. Adamo, J. Jaramillo, R. Gomperts, R. E. Stratmann, 
 O. Yazyev, A. J. Austin, R. Cammi, C. Pomelli, J. W. Ochterski, 
 R. L. Martin, K. Morokuma, V. G. Zakrzewski, G. A. Voth, 
 P. Salvador, J. J. Dannenberg, S. Dapprich, A. D. Daniels, 
 O. Farkas, J. B. Foresman, J. V. Ortiz, J. Cioslowski, 
 and D. J. Fox, Gaussian, Inc., Wallingford CT, 2010.
 
 ******************************************
 Gaussian 09:  EM64L-G09RevB.01 12-Aug-2010
                 6-Mar-2018 
 ******************************************
 %chk=OH-mid-10.chk
 %nprocshared=24
 Will use up to   24 processors via shared memory.
 ----------------------------------------------------------------------
 # field=z+50 opt=(calcall,ts,noeigen,z-matrix) nosymm freq b3lyp/6-31+
 +g(d,p)
 ----------------------------------------------------------------------
 1/5=1,10=4,11=1,14=-1,18=40,26=3,38=1/1,3;
 2/12=2,15=1,17=6,18=5,29=3,40=1/2;
 3/5=1,6=6,7=1111,11=2,14=3,15=50,16=1,25=1,30=1,71=2,74=-5/1,2,3;
 4//1;
 5/5=2,38=5/2;
 8/6=4,10=90,11=11/1;
 11/6=1,8=1,9=11,15=111,16=1,31=1/1,2,10;
 10/6=1,31=1/2;
 6/7=2,8=2,9=2,10=2,18=1,28=1/1;
 7/10=1,25=1,30=1/1,2,3,16;
 1/5=1,10=4,11=1,14=-1,18=40/3(3);
 2/15=1,29=3/2;
 7/8=1,9=1,25=1,30=1,44=-1/16;
 99//99;
 2/15=1,29=3/2;
 3/5=1,6=6,7=1111,11=2,14=3,15=50,16=1,25=1,30=1,71=2,74=-5/1,2,3;
 4/5=5,16=3/1;
 5/5=2,38=5/2;
 8/6=4,10=90,11=11/1;
 11/6=1,8=1,9=11,15=111,16=1,31=1/1,2,10;
 10/6=1,31=1/2;
 7/10=1,25=1,30=1/1,2,3,16;
 1/5=1,10=4,11=1,14=-1,18=40/3(-8);
 2/15=1,29=3/2;
 6/7=2,8=2,9=2,10=2,18=1,19=2,28=1/1;
 7/8=1,9=1,25=1,30=1,44=-1/16;
 99//99;
 -----------
 OH-BACK-MID
 -----------
 Symbolic Z-matrix:
 Charge = -1 Multiplicity = 1
 C
 O                    1     2.24655 
 C                    1    B1       2    A1
 C                    1    B2       3    A2       2    D1       0
 H                    2    B3       1    A3       3    D2       0
 H                    1    B4       3    A4       4    D3       0
 H                    3    B5       1    A5       4    D4       0
 H                    3    B6       1    A6       4    D5       0
 H                    4    B7       1    A7       3    D6       0
 H                    4    B8       1    A8       3    D7       0
 H                    4    B9       1    A9       3    D8       0
 O                    3    B10      1    A10      4    D9       0
       Variables:
  B1                    1.45622                  
  B2                    1.49691                  
  B3                    0.96                     
  B4                    1.07                     
  B5                    1.07                     
  B6                    1.07                     
  B7                    1.07                     
  B8                    1.07                     
  B9                    1.07                     
  B10                   1.43                     
  A1                  102.82784                  
  A2                  122.71681                  
  A3                   97.37129                  
  A4                  116.61371                  
  A5                  116.61591                  
  A6                  115.98517                  
  A7                  111.38903                  
  A8                  110.8166                   
  A9                  109.58946                  
  A10                  81.06553                  
  D1                 -105.58271                  
  D2                   37.09741                  
  D3                 -162.50297                  
  D4                 -164.08382                  
  D5                  -30.92606                  
  D6                   17.18344                  
  D7                 -104.10951                  
  D8                  137.73808                  
  D9                   82.41656                  
 

 GradGradGradGradGradGradGradGradGradGradGradGradGradGradGradGradGradGrad
 Berny optimization.
 Initialization pass.
                       ----------------------------
                       !    Initial Parameters    !
                       ! (Angstroms and Degrees)  !
 ----------------------                            ----------------------
 !      Name          Value   Derivative information (Atomic Units)     !
 ------------------------------------------------------------------------
 !       B1          1.4562   calculate D2E/DX2 analytically            !
 !       B2          1.4969   calculate D2E/DX2 analytically            !
 !       B3          0.96     calculate D2E/DX2 analytically            !
 !       B4          1.07     calculate D2E/DX2 analytically            !
 !       B5          1.07     calculate D2E/DX2 analytically            !
 !       B6          1.07     calculate D2E/DX2 analytically            !
 !       B7          1.07     calculate D2E/DX2 analytically            !
 !       B8          1.07     calculate D2E/DX2 analytically            !
 !       B9          1.07     calculate D2E/DX2 analytically            !
 !       B10         1.43     calculate D2E/DX2 analytically            !
 !       A1        102.8278   calculate D2E/DX2 analytically            !
 !       A2        122.7168   calculate D2E/DX2 analytically            !
 !       A3         97.3713   calculate D2E/DX2 analytically            !
 !       A4        116.6137   calculate D2E/DX2 analytically            !
 !       A5        116.6159   calculate D2E/DX2 analytically            !
 !       A6        115.9852   calculate D2E/DX2 analytically            !
 !       A7        111.389    calculate D2E/DX2 analytically            !
 !       A8        110.8166   calculate D2E/DX2 analytically            !
 !       A9        109.5895   calculate D2E/DX2 analytically            !
 !       A10        81.0655   calculate D2E/DX2 analytically            !
 !       D1       -105.5827   calculate D2E/DX2 analytically            !
 !       D2         37.0974   calculate D2E/DX2 analytically            !
 !       D3       -162.503    calculate D2E/DX2 analytically            !
 !       D4       -164.0838   calculate D2E/DX2 analytically            !
 !       D5        -30.9261   calculate D2E/DX2 analytically            !
 !       D6         17.1834   calculate D2E/DX2 analytically            !
 !       D7       -104.1095   calculate D2E/DX2 analytically            !
 !       D8        137.7381   calculate D2E/DX2 analytically            !
 !       D9         82.4166   calculate D2E/DX2 analytically            !
 ------------------------------------------------------------------------
 Trust Radius=3.00D-01 FncErr=1.00D-07 GrdErr=1.00D-06
 Number of steps in this run=     39 maximum allowed number of steps=    100.
 Search for a saddle point of order  1.
 GradGradGradGradGradGradGradGradGradGradGradGradGradGradGradGradGradGrad

 ---------------------------------------------------------------------------------------------------
                            Z-MATRIX (ANGSTROMS AND DEGREES)
   CD    Cent   Atom    N1       Length/X        N2       Alpha/Y        N3        Beta/Z          J
 ---------------------------------------------------------------------------------------------------
      1      1  C 
      2      2  O        1   2.246546(     1)
      3      3  C        1   1.456223(     2)      2  102.828(    12)
      4      4  C        1   1.496913(     3)      3  122.717(    13)      2 -105.583(    22)      0
      5      5  H        2   0.960000(     4)      1   97.371(    14)      3   37.097(    23)      0
      6      6  H        1   1.070000(     5)      3  116.614(    15)      4 -162.503(    24)      0
      7      7  H        3   1.070000(     6)      1  116.616(    16)      4 -164.084(    25)      0
      8      8  H        3   1.070000(     7)      1  115.985(    17)      4  -30.926(    26)      0
      9      9  H        4   1.070000(     8)      1  111.389(    18)      3   17.183(    27)      0
     10     10  H        4   1.070000(     9)      1  110.817(    19)      3 -104.110(    28)      0
     11     11  H        4   1.070000(    10)      1  109.589(    20)      3  137.738(    29)      0
     12     12  O        3   1.430000(    11)      1   81.066(    21)      4   82.417(    30)      0
 ---------------------------------------------------------------------------------------------------
                         Z-Matrix orientation:                         
 ---------------------------------------------------------------------
 Center     Atomic      Atomic             Coordinates (Angstroms)
 Number     Number       Type             X           Y           Z
 ---------------------------------------------------------------------
      1          6           0        0.000000    0.000000    0.000000
      2          8           0        0.000000    0.000000    2.246546
      3          6           0        1.419878    0.000000   -0.323314
      4          6           0       -0.863984   -1.213139   -0.150246
      5          1           0        0.759379    0.574260    2.369713
      6          1           0       -0.474463    0.956096    0.075264
      7          1           0        1.998251    0.815656    0.057593
      8          1           0        1.933491   -0.927549   -0.179249
      9          1           0       -0.276110   -2.104003   -0.225518
     10          1           0       -1.483054   -1.133809   -1.019360
     11          1           0       -1.514033   -1.297586    0.695452
     12          8           0        0.892747    0.196585   -1.637996
 ---------------------------------------------------------------------
                    Distance matrix (angstroms):
                    1          2          3          4          5
     1  C    0.000000
     2  O    2.246546   0.000000
     3  C    1.456223   2.936024   0.000000
     4  C    1.496913   2.821841   2.591850   0.000000
     5  H    2.553814   0.960000   2.831683   3.490028   0.000000
     6  H    1.070000   2.419442   2.159054   2.215438   2.632994
     7  H    2.159078   3.074055   1.070000   3.514484   2.634193
     8  H    2.151945   3.237779   1.070000   2.812165   3.182950
     9  H    2.133992   3.257939   2.704213   1.070000   3.870471
    10  H    2.126985   3.761796   3.193277   1.070000   4.408153
    11  H    2.111795   2.526245   3.365925   1.070000   3.387529
    12  O    1.875813   3.990652   1.430000   2.699412   4.027673
                    6          7          8          9         10
     6  H    0.000000
     7  H    2.476762   0.000000
     8  H    3.067758   1.760412   0.000000
     9  H    3.081237   3.711775   2.503702   0.000000
    10  H    2.565767   4.132762   3.524359   1.740166   0.000000
    11  H    2.558207   4.148348   3.575955   1.740962   1.722894
    12  O    2.319780   2.116698   2.115364   2.941772   2.792326
                   11         12
    11  H    0.000000
    12  O    3.670166   0.000000
 Symmetry turned off by external request.
 Stoichiometry    C3H7O2(1-)
 Framework group  C1[X(C3H7O2)]
 Deg. of freedom    30
 Full point group                 C1      NOp   1
 Rotational constants (GHZ):      7.2481255      3.3502161      2.5238125
 Standard basis: 6-31++G(d,p) (6D, 7F)
 The following finite field(s) will be applied:
 An electric field of              0.0000  0.0000  0.0050
 Integral buffers will be    131072 words long.
 Raffenetti 2 integral format.
 Two-electron integral symmetry is turned off.
   137 basis functions,   216 primitive gaussians,   137 cartesian basis functions
    21 alpha electrons       21 beta electrons
       nuclear repulsion energy       175.8803844275 Hartrees.
 NAtoms=   12 NActive=   12 NUniq=   12 SFac= 1.00D+00 NAtFMM=   50 NAOKFM=F Big=F
 One-electron integrals computed using PRISM.
 PrsmSu:  requested number of processors reduced to:  10 ShMem   1 Linda.
 NBasis=   137 RedAO= T  NBF=   137
 NBsUse=   137 1.00D-06 NBFU=   137
 The nuclear repulsion energy is now       175.9162980493 hartrees.
 Harris functional with IExCor=  402 diagonalized for initial guess.
 ExpMin= 3.60D-02 ExpMax= 5.48D+03 ExpMxC= 8.25D+02 IAcc=3 IRadAn=         0 AccDes= 0.00D+00
 HarFok:  IExCor=  402 AccDes= 0.00D+00 IRadAn=         0 IDoV= 1
 ScaDFX=  1.000000  1.000000  1.000000  1.000000
 FoFCou: FMM=F IPFlag=           0 FMFlag=      100000 FMFlg1=           0
         NFxFlg=           0 DoJE=T BraDBF=F KetDBF=T FulRan=T
         Omega=  0.000000  0.000000  1.000000  0.000000  0.000000 ICntrl=     500 IOpCl=  0
         NMat0=    1 NMatS0=    1 NMatT0=    0 NMatD0=    1 NMtDS0=    0 NMtDT0=    0
         I1Cent=           4 NGrid=           0.
 Symmetry not used in FoFCou.
 Requested convergence on RMS density matrix=1.00D-08 within 128 cycles.
 Requested convergence on MAX density matrix=1.00D-06.
 Requested convergence on             energy=1.00D-06.
 No special actions if energy rises.
 SCF Done:  E(RB3LYP) =  -268.942531990     A.U. after   15 cycles
             Convg  =    0.5940D-08             -V/T =  2.0090
 Range of M.O.s used for correlation:     1   137
 NBasis=   137 NAE=    21 NBE=    21 NFC=     0 NFV=     0
 NROrb=    137 NOA=    21 NOB=    21 NVA=   116 NVB=   116

 **** Warning!!: The largest alpha MO coefficient is  0.52171727D+02

 PrsmSu:  requested number of processors reduced to:  10 ShMem   1 Linda.
 PrsmSu:  requested number of processors reduced to:  18 ShMem   1 Linda.
 Symmetrizing basis deriv contribution to polar:
 IMax=3 JMax=2 DiffMx= 0.00D+00
 G2DrvN: will do     4 centers at a time, making    4 passes doing MaxLOS=2.
 Estimated number of processors is:   15
 Calling FoFCou, ICntrl=  3107 FMM=F I1Cent=   0 AccDes= 0.00D+00.
 CoulSu:  requested number of processors reduced to:  15 ShMem   1 Linda.
 Calling FoFCou, ICntrl=  3107 FMM=F I1Cent=   0 AccDes= 0.00D+00.
 CoulSu:  requested number of processors reduced to:  15 ShMem   1 Linda.
 Calling FoFCou, ICntrl=  3107 FMM=F I1Cent=   0 AccDes= 0.00D+00.
 CoulSu:  requested number of processors reduced to:  15 ShMem   1 Linda.
 Calling FoFCou, ICntrl=  3107 FMM=F I1Cent=   0 AccDes= 0.00D+00.
 CoulSu:  requested number of processors reduced to:  15 ShMem   1 Linda.
 FoFDir/FoFCou used for L=0 through L=2.
 End of G2Drv Frequency-dependent properties file   721 does not exist.
 End of G2Drv Frequency-dependent properties file   722 does not exist.
          IDoAtm=111111111111
          Differentiating once with respect to electric field.
                with respect to dipole field.
          Differentiating once with respect to nuclear coordinates.
 PrRfSu:  requested number of processors reduced to:  15 ShMem   1 Linda.
 CalDSu:  requested number of processors reduced to:  19 ShMem   1 Linda.
          There are    39 degrees of freedom in the 1st order CPHF.  IDoFFX=5.
     36 vectors produced by pass  0 Test12= 6.25D-15 2.56D-09 XBig12= 1.34D+02 5.60D+00.
 AX will form    36 AO Fock derivatives at one time.
 PrRfSu:  requested number of processors reduced to:  15 ShMem   1 Linda.
 CalDSu:  requested number of processors reduced to:  20 ShMem   1 Linda.
     36 vectors produced by pass  1 Test12= 6.25D-15 2.56D-09 XBig12= 7.10D+01 2.61D+00.
 PrRfSu:  requested number of processors reduced to:  15 ShMem   1 Linda.
 CalDSu:  requested number of processors reduced to:  20 ShMem   1 Linda.
     36 vectors produced by pass  2 Test12= 6.25D-15 2.56D-09 XBig12= 3.11D-01 1.69D-01.
 PrRfSu:  requested number of processors reduced to:  15 ShMem   1 Linda.
 CalDSu:  requested number of processors reduced to:  20 ShMem   1 Linda.
     36 vectors produced by pass  3 Test12= 6.25D-15 2.56D-09 XBig12= 1.55D-03 7.38D-03.
 PrRfSu:  requested number of processors reduced to:  15 ShMem   1 Linda.
 CalDSu:  requested number of processors reduced to:  20 ShMem   1 Linda.
     36 vectors produced by pass  4 Test12= 6.25D-15 2.56D-09 XBig12= 3.97D-06 3.51D-04.
 PrRfSu:  requested number of processors reduced to:  15 ShMem   1 Linda.
 CalDSu:  requested number of processors reduced to:  20 ShMem   1 Linda.
     29 vectors produced by pass  5 Test12= 6.25D-15 2.56D-09 XBig12= 4.84D-09 8.88D-06.
 PrRfSu:  requested number of processors reduced to:  16 ShMem   1 Linda.
 CalDSu:  requested number of processors reduced to:  21 ShMem   1 Linda.
      6 vectors produced by pass  6 Test12= 6.25D-15 2.56D-09 XBig12= 4.73D-12 3.89D-07.
      3 vectors produced by pass  7 Test12= 6.25D-15 2.56D-09 XBig12= 5.26D-14 6.21D-08.
      1 vectors produced by pass  8 Test12= 6.25D-15 2.56D-09 XBig12= 9.91D-16 1.25D-08.
 Inverted reduced A of dimension   219 with in-core refinement.
 Isotropic polarizability for W=    0.000000       70.08 Bohr**3.
 End of Minotr Frequency-dependent properties file   721 does not exist.
 End of Minotr Frequency-dependent properties file   722 does not exist.

 **********************************************************************

            Population analysis using the SCF density.

 **********************************************************************

 Alpha  occ. eigenvalues --  -18.93285 -18.89295 -10.08016 -10.05345 -10.02462
 Alpha  occ. eigenvalues --   -0.78727  -0.69612  -0.59730  -0.49970  -0.42166
 Alpha  occ. eigenvalues --   -0.32219  -0.28057  -0.26319  -0.23395  -0.21065
 Alpha  occ. eigenvalues --   -0.18449  -0.17987  -0.10252  -0.06033  -0.04531
 Alpha  occ. eigenvalues --   -0.03334
 Alpha virt. eigenvalues --    0.10734   0.12100   0.13269   0.13897   0.15342
 Alpha virt. eigenvalues --    0.15719   0.16659   0.17916   0.20609   0.21595
 Alpha virt. eigenvalues --    0.23606   0.23913   0.25037   0.25899   0.26687
 Alpha virt. eigenvalues --    0.27250   0.27954   0.28522   0.29863   0.32736
 Alpha virt. eigenvalues --    0.34915   0.35051   0.37591   0.38114   0.38745
 Alpha virt. eigenvalues --    0.40221   0.40975   0.41018   0.43821   0.45071
 Alpha virt. eigenvalues --    0.47366   0.49278   0.49995   0.52073   0.53099
 Alpha virt. eigenvalues --    0.55429   0.56497   0.59129   0.78199   0.82291
 Alpha virt. eigenvalues --    0.86941   0.87549   0.89631   0.94455   0.95437
 Alpha virt. eigenvalues --    1.00360   1.02953   1.11552   1.13722   1.13848
 Alpha virt. eigenvalues --    1.19291   1.21573   1.24139   1.27830   1.30672
 Alpha virt. eigenvalues --    1.36659   1.39570   1.42335   1.44540   1.49221
 Alpha virt. eigenvalues --    1.49919   1.55208   1.56779   1.58221   1.63171
 Alpha virt. eigenvalues --    1.68264   1.78252   1.82197   1.84060   1.85392
 Alpha virt. eigenvalues --    1.91441   1.96648   2.00989   2.04620   2.06293
 Alpha virt. eigenvalues --    2.11516   2.14359   2.18628   2.21222   2.21859
 Alpha virt. eigenvalues --    2.26462   2.29586   2.32066   2.35864   2.37833
 Alpha virt. eigenvalues --    2.48831   2.51686   2.53205   2.57196   2.65607
 Alpha virt. eigenvalues --    2.69352   2.71679   2.77385   2.83495   2.86698
 Alpha virt. eigenvalues --    2.90470   2.93111   2.94947   2.96410   3.05361
 Alpha virt. eigenvalues --    3.07696   3.09738   3.11219   3.19872   3.47555
 Alpha virt. eigenvalues --    3.52522   3.64708   3.65930   3.68975   3.70029
 Alpha virt. eigenvalues --    3.73933   4.38344   4.43677   4.56027   4.71226
 Alpha virt. eigenvalues --    4.82407
          Condensed to atoms (all electrons):
              1          2          3          4          5          6
     1  C    9.318159  -0.275383  -1.047395  -2.184512   0.056528   0.603579
     2  O   -0.275383   8.839764   0.083660   0.095330   0.147258  -0.054874
     3  C   -1.047395   0.083660   6.143247   0.111839  -0.014755  -0.132999
     4  C   -2.184512   0.095330   0.111839   7.300571  -0.021493  -0.166933
     5  H    0.056528   0.147258  -0.014755  -0.021493   0.634143   0.009260
     6  H    0.603579  -0.054874  -0.132999  -0.166933   0.009260   0.673589
     7  H   -0.371755   0.028514   0.454778   0.259767  -0.008344  -0.107839
     8  H    0.176454   0.005630   0.358821  -0.271118  -0.003815   0.056062
     9  H   -0.124235  -0.004860   0.017258   0.463680   0.001043   0.004146
    10  H   -0.025347   0.011748   0.031944   0.357111  -0.002779  -0.006633
    11  H   -0.199039   0.011249   0.017334   0.543984  -0.006819  -0.024132
    12  O   -0.344280   0.034705   0.232900   0.205744  -0.010245  -0.034397
              7          8          9         10         11         12
     1  C   -0.371755   0.176454  -0.124235  -0.025347  -0.199039  -0.344280
     2  O    0.028514   0.005630  -0.004860   0.011748   0.011249   0.034705
     3  C    0.454778   0.358821   0.017258   0.031944   0.017334   0.232900
     4  C    0.259767  -0.271118   0.463680   0.357111   0.543984   0.205744
     5  H   -0.008344  -0.003815   0.001043  -0.002779  -0.006819  -0.010245
     6  H   -0.107839   0.056062   0.004146  -0.006633  -0.024132  -0.034397
     7  H    0.934498  -0.217244  -0.004880   0.001362   0.013437  -0.060509
     8  H   -0.217244   0.905485   0.009673   0.003367  -0.017194  -0.077130
     9  H   -0.004880   0.009673   0.540018  -0.015723  -0.035350  -0.007796
    10  H    0.001362   0.003367  -0.015723   0.542644  -0.040324  -0.011730
    11  H    0.013437  -0.017194  -0.035350  -0.040324   0.569543   0.017073
    12  O   -0.060509  -0.077130  -0.007796  -0.011730   0.017073   8.611589
 Mulliken atomic charges:
              1
     1  C    0.417226
     2  O   -0.922739
     3  C   -0.256633
     4  C   -0.693969
     5  H    0.220018
     6  H    0.181172
     7  H    0.078215
     8  H    0.071009
     9  H    0.157027
    10  H    0.154361
    11  H    0.150237
    12  O   -0.555923
 Sum of Mulliken atomic charges =  -1.00000
 Mulliken charges with hydrogens summed into heavy atoms:
              1
     1  C    0.598398
     2  O   -0.702721
     3  C   -0.107409
     4  C   -0.232344
    12  O   -0.555923
 Sum of Mulliken charges with hydrogens summed into heavy atoms =  -1.00000
 APT atomic charges:
              1
     1  C    0.967915
     2  O   -1.066052
     3  C    0.350628
     4  C    0.026598
     5  H    0.078663
     6  H   -0.049410
     7  H   -0.104167
     8  H   -0.087939
     9  H   -0.021816
    10  H   -0.033372
    11  H   -0.007144
    12  O   -1.053905
 Sum of APT charges=  -1.00000
 APT Atomic charges with hydrogens summed into heavy atoms:
              1
     1  C    0.918505
     2  O   -0.987390
     3  C    0.158523
     4  C   -0.035734
     5  H    0.000000
     6  H    0.000000
     7  H    0.000000
     8  H    0.000000
     9  H    0.000000
    10  H    0.000000
    11  H    0.000000
    12  O   -1.053905
 Sum of APT charges=  -1.00000
 Electronic spatial extent (au):  <R**2>=            548.8844
 Charge=             -1.0000 electrons
 Dipole moment (field-independent basis, Debye):
    X=             -1.0712    Y=              0.1933    Z=             -3.8337  Tot=              3.9852
 Quadrupole moment (field-independent basis, Debye-Ang):
   XX=            -35.8685   YY=            -35.3896   ZZ=            -65.6963
   XY=              0.3407   XZ=              6.4014   YZ=              2.9743
 Traceless Quadrupole moment (field-independent basis, Debye-Ang):
   XX=              9.7829   YY=             10.2619   ZZ=            -20.0448
   XY=              0.3407   XZ=              6.4014   YZ=              2.9743
 Octapole moment (field-independent basis, Debye-Ang**2):
  XXX=            -29.1061  YYY=             23.8387  ZZZ=            -54.8082  XYY=             -8.7663
  XXY=              8.0152  XXZ=             -1.6588  XZZ=            -12.0662  YZZ=             10.0865
  YYZ=             -5.2734  XYZ=              4.1078
 Hexadecapole moment (field-independent basis, Debye-Ang**3):
 XXXX=           -230.2183 YYYY=           -143.8375 ZZZZ=           -591.6098 XXXY=            -29.6525
 XXXZ=             31.1699 YYYX=            -31.6586 YYYZ=             -0.8872 ZZZX=             59.8040
 ZZZY=             11.1182 XXYY=            -62.6379 XXZZ=           -113.2135 YYZZ=            -99.8738
 XXYZ=              0.9787 YYXZ=             10.6017 ZZXY=             -4.2328
 N-N= 1.759162980493D+02 E-N=-9.894085979859D+02  KE= 2.665478913137D+02
  Exact polarizability:  62.077   2.147  55.217  -6.053   1.687  92.947
 Approx polarizability:  80.352   1.729  69.805 -12.864  -2.461 137.227
 PrsmSu:  requested number of processors reduced to:  10 ShMem   1 Linda.
 PrsmSu:  requested number of processors reduced to:  11 ShMem   1 Linda.
 Calling FoFJK, ICntrl=    100127 FMM=F ISym2X=0 I1Cent= 0 IOpClX= 0 NMat=1 NMatS=1 NMatT=0.
 CoulSu:  requested number of processors reduced to:  11 ShMem   1 Linda.
 -------------------------------------------------------------------
 Center     Atomic                   Forces (Hartrees/Bohr)
 Number     Number              X              Y              Z
 -------------------------------------------------------------------
      1        6           0.009684516   -0.003735988   -0.002617152
      2        8          -0.009534162   -0.006098581   -0.001598232
      3        6          -0.026626569    0.003445036   -0.026784156
      4        6           0.006216495    0.012965782    0.003016307
      5        1           0.006999224    0.005279900    0.001324154
      6        1          -0.003221290    0.005761782    0.001381871
      7        1           0.011356114    0.016561141    0.008485359
      8        1           0.009825931   -0.018638507    0.003860324
      9        1           0.009950508   -0.013590503   -0.001571862
     10        1          -0.008007607    0.001380318   -0.016610587
     11        1          -0.007441337   -0.000337395    0.016388058
     12        8           0.000798179   -0.002992985    0.019725915
 -------------------------------------------------------------------
 Cartesian Forces:  Max     0.026784156 RMS     0.010939736
 -----------------------------------------------------------------------------------------------
                       Internal Coordinate Forces (Hartree/Bohr or radian)
  Cent   Atom   N1       Length/X         N2         Alpha/Y        N3         Beta/Z          J
 -----------------------------------------------------------------------------------------------
      1  C 
      2  O        1  -0.000274(     1)
      3  C        1  -0.005704(     2)      2   0.009008(    12)
      4  C        1  -0.000876(     3)      3   0.000666(    13)      2   0.004151(    22)     0
      5  H        2   0.008865(     4)      1   0.000342(    14)      3  -0.000019(    23)     0
      6  H        1   0.006674(     5)      3   0.001036(    15)      4  -0.001490(    24)     0
      7  H        3   0.021784(     6)      1  -0.001290(    16)      4   0.000997(    25)     0
      8  H        3   0.021393(     7)      1  -0.001461(    17)      4  -0.001457(    26)     0
      9  H        4   0.016893(     8)      1  -0.001590(    18)      3  -0.000846(    27)     0
     10  H        4   0.018227(     9)      1  -0.002828(    19)      3   0.005260(    28)     0
     11  H        4   0.017500(    10)      1  -0.006318(    20)      3  -0.005401(    29)     0
     12  O        3  -0.018841(    11)      1  -0.017856(    21)      4  -0.000701(    30)     0
 -----------------------------------------------------------------------------------------------
 Internal  Forces:  Max     0.021783547 RMS     0.009838716

 GradGradGradGradGradGradGradGradGradGradGradGradGradGradGradGradGradGrad
 Berny optimization.
 Search for a saddle point.
 Step number   1 out of a maximum of   39
 All quantities printed in internal units (Hartrees-Bohrs-Radians)
 Swaping is turned off.
 Second derivative matrix not updated -- analytic derivatives used.
 ITU=  0
     Eigenvalues ---   -0.00048   0.00270   0.00553   0.03167   0.04272
     Eigenvalues ---    0.07810   0.10738   0.11802   0.12501   0.13782
     Eigenvalues ---    0.15036   0.17250   0.23367   0.27731   0.28055
     Eigenvalues ---    0.29956   0.31681   0.33799   0.36571   0.36984
     Eigenvalues ---    0.37516   0.39162   0.39569   0.39817   0.39876
     Eigenvalues ---    0.40239   0.47380   0.51899   0.54670
 Eigenvectors required to have negative eigenvalues:
                          D8        D6        D7        D3        A10
   1                    0.44384   0.44367   0.42812   0.35895   0.29063
                          D5        D2        D1        A3        D9
   1                   -0.27183  -0.20694  -0.15858  -0.15151  -0.14586
 RFO step:  Lambda0=3.909817259D-03 Lambda=-1.00810728D-02.
 Linear search not attempted -- option 19 set.
 Maximum step size (   0.300) exceeded in Quadratic search.
    -- Step size scaled by   0.301
 Variable       Old X    -DE/DX   Delta X   Delta X   Delta X     New X
                                 (Linear)    (Quad)   (Total)
    B1        2.75186  -0.00570   0.00000   0.00684   0.00684   2.75871
    B2        2.82876  -0.00088   0.00000   0.00031   0.00031   2.82906
    B3        1.81414   0.00886   0.00000   0.00459   0.00459   1.81873
    B4        2.02201   0.00667   0.00000   0.00614   0.00614   2.02814
    B5        2.02201   0.02178   0.00000   0.02100   0.02100   2.04301
    B6        2.02201   0.02139   0.00000   0.02022   0.02022   2.04222
    B7        2.02201   0.01689   0.00000   0.01316   0.01316   2.03516
    B8        2.02201   0.01823   0.00000   0.01260   0.01260   2.03460
    B9        2.02201   0.01750   0.00000   0.01232   0.01232   2.03433
   B10        2.70231  -0.01884   0.00000  -0.03534  -0.03534   2.66697
    A1        1.79468   0.00901   0.00000   0.03850   0.03850   1.83318
    A2        2.14181   0.00067   0.00000  -0.00179  -0.00179   2.14003
    A3        1.69945   0.00034   0.00000  -0.02604  -0.02604   1.67341
    A4        2.03529   0.00104   0.00000  -0.00765  -0.00765   2.02764
    A5        2.03533  -0.00129   0.00000  -0.01216  -0.01216   2.02317
    A6        2.02432  -0.00146   0.00000  -0.01220  -0.01220   2.01212
    A7        1.94411  -0.00159   0.00000  -0.00216  -0.00216   1.94195
    A8        1.93411  -0.00283   0.00000  -0.00108  -0.00108   1.93303
    A9        1.91270  -0.00632   0.00000  -0.00448  -0.00448   1.90822
   A10        1.41486  -0.01786   0.00000   0.03517   0.03517   1.45003
    D1       -1.84277   0.00415   0.00000  -0.02386  -0.02386  -1.86662
    D2        0.64747  -0.00002   0.00000  -0.07574  -0.07574   0.57174
    D3       -2.83621  -0.00149   0.00000   0.06293   0.06293  -2.77328
    D4       -2.86380   0.00100   0.00000  -0.00924  -0.00924  -2.87304
    D5       -0.53976  -0.00146   0.00000  -0.06049  -0.06049  -0.60025
    D6        0.29991  -0.00085   0.00000   0.15351   0.15351   0.45342
    D7       -1.81705   0.00526   0.00000   0.15543   0.15543  -1.66162
    D8        2.40398  -0.00540   0.00000   0.14381   0.14381   2.54780
    D9        1.43844  -0.00070   0.00000  -0.03340  -0.03340   1.40504
         Item               Value     Threshold  Converged?
 Maximum Force            0.021784     0.000450     NO 
 RMS     Force            0.010007     0.000300     NO 
 Maximum Displacement     0.155429     0.001800     NO 
 RMS     Displacement     0.055709     0.001200     NO 
 Predicted change in Energy=-1.467546D-03
 GradGradGradGradGradGradGradGradGradGradGradGradGradGradGradGradGradGrad

 ---------------------------------------------------------------------------------------------------
                            Z-MATRIX (ANGSTROMS AND DEGREES)
   CD    Cent   Atom    N1       Length/X        N2       Alpha/Y        N3        Beta/Z          J
 ---------------------------------------------------------------------------------------------------
      1      1  C 
      2      2  O        1   2.246546(     1)
      3      3  C        1   1.459845(     2)      2  105.034(    12)
      4      4  C        1   1.497076(     3)      3  122.614(    13)      2 -106.950(    22)      0
      5      5  H        2   0.962428(     4)      1   95.879(    14)      3   32.758(    23)      0
      6      6  H        1   1.073247(     5)      3  116.175(    15)      4 -158.897(    24)      0
      7      7  H        3   1.081113(     6)      1  115.919(    16)      4 -164.613(    25)      0
      8      8  H        3   1.080699(     7)      1  115.286(    17)      4  -34.392(    26)      0
      9      9  H        4   1.076962(     8)      1  111.265(    18)      3   25.979(    27)      0
     10     10  H        4   1.076665(     9)      1  110.755(    19)      3  -95.204(    28)      0
     11     11  H        4   1.076521(    10)      1  109.333(    20)      3  145.978(    29)      0
     12     12  O        3   1.411301(    11)      1   83.081(    21)      4   80.503(    30)      0
 ---------------------------------------------------------------------------------------------------
                         Z-Matrix orientation:                         
 ---------------------------------------------------------------------
 Center     Atomic      Atomic             Coordinates (Angstroms)
 Number     Number       Type             X           Y           Z
 ---------------------------------------------------------------------
      1          6           0        0.000000    0.000000    0.000000
      2          8           0        0.000000    0.000000    2.246546
      3          6           0        1.409880    0.000000   -0.378663
      4          6           0       -0.874638   -1.206235   -0.145745
      5          1           0        0.805109    0.518023    2.345132
      6          1           0       -0.475318    0.960656    0.055432
      7          1           0        2.001170    0.821574    0.001071
      8          1           0        1.931662   -0.932224   -0.215530
      9          1           0       -0.296584   -2.114278   -0.111666
     10          1           0       -1.416884   -1.174264   -1.075344
     11          1           0       -1.592418   -1.225008    0.656339
     12          8           0        0.885346    0.181719   -1.676204
 ---------------------------------------------------------------------
                    Distance matrix (angstroms):
                    1          2          3          4          5
     1  C    0.000000
     2  O    2.246546   0.000000
     3  C    1.459845   2.979846   0.000000
     4  C    1.497076   2.818342   2.593893   0.000000
     5  H    2.533020   0.962428   2.837807   3.463970   0.000000
     6  H    1.073247   2.439214   2.159923   2.212543   2.660478
     7  H    2.163254   3.117984   1.081113   3.521909   2.649024
     8  H    2.155646   3.265299   1.080699   2.820509   3.151083
     9  H    2.137896   3.181084   2.730106   1.076962   3.765447
    10  H    2.131390   3.797553   3.139245   1.076665   4.415965
    11  H    2.113580   2.562264   3.403772   1.076521   3.411497
    12  O    1.904342   4.025521   1.411301   2.714087   4.036171
                    6          7          8          9         10
     6  H    0.000000
     7  H    2.480986   0.000000
     8  H    3.074080   1.768489   0.000000
     9  H    3.084653   3.729827   2.524504   0.000000
    10  H    2.592892   4.101845   3.465634   1.751391   0.000000
    11  H    2.527079   4.187093   3.642117   1.749233   1.741296
    12  O    2.335961   2.113700   2.114051   3.019327   2.738610
                   11         12
    11  H    0.000000
    12  O    3.682247   0.000000
 Symmetry turned off by external request.
 Stoichiometry    C3H7O2(1-)
 Framework group  C1[X(C3H7O2)]
 Deg. of freedom    30
 Full point group                 C1      NOp   1
 Rotational constants (GHZ):      7.3273444      3.2908717      2.4946722
 Standard basis: 6-31++G(d,p) (6D, 7F)
 The following finite field(s) will be applied:
 An electric field of              0.0000  0.0000  0.0050
 Integral buffers will be    131072 words long.
 Raffenetti 2 integral format.
 Two-electron integral symmetry is turned off.
   137 basis functions,   216 primitive gaussians,   137 cartesian basis functions
    21 alpha electrons       21 beta electrons
       nuclear repulsion energy       175.4115304936 Hartrees.
 NAtoms=   12 NActive=   12 NUniq=   12 SFac= 1.00D+00 NAtFMM=   50 NAOKFM=F Big=F
 One-electron integrals computed using PRISM.
 PrsmSu:  requested number of processors reduced to:  10 ShMem   1 Linda.
 NBasis=   137 RedAO= T  NBF=   137
 NBsUse=   137 1.00D-06 NBFU=   137
 The nuclear repulsion energy is now       175.4405541033 hartrees.
 Initial guess read from the read-write file.
 B after Tr=     0.000000    0.000000    0.000000
         Rot=    1.000000    0.000000    0.000000    0.000000 Ang=   0.00 deg.
 Harris functional with IExCor=  402 diagonalized for initial guess.
 ExpMin= 3.60D-02 ExpMax= 5.48D+03 ExpMxC= 8.25D+02 IAcc=3 IRadAn=         0 AccDes= 0.00D+00
 HarFok:  IExCor=  402 AccDes= 0.00D+00 IRadAn=         0 IDoV= 1
 ScaDFX=  1.000000  1.000000  1.000000  1.000000
 FoFCou: FMM=F IPFlag=           0 FMFlag=      100000 FMFlg1=           0
         NFxFlg=           0 DoJE=T BraDBF=F KetDBF=T FulRan=T
         Omega=  0.000000  0.000000  1.000000  0.000000  0.000000 ICntrl=     500 IOpCl=  0
         NMat0=    1 NMatS0=    1 NMatT0=    0 NMatD0=    1 NMtDS0=    0 NMtDT0=    0
         I1Cent=           4 NGrid=           0.
 Symmetry not used in FoFCou.
 Requested convergence on RMS density matrix=1.00D-08 within 128 cycles.
 Requested convergence on MAX density matrix=1.00D-06.
 Requested convergence on             energy=1.00D-06.
 No special actions if energy rises.
 SCF Done:  E(RB3LYP) =  -268.943998199     A.U. after   12 cycles
             Convg  =    0.4991D-08             -V/T =  2.0092
 Range of M.O.s used for correlation:     1   137
 NBasis=   137 NAE=    21 NBE=    21 NFC=     0 NFV=     0
 NROrb=    137 NOA=    21 NOB=    21 NVA=   116 NVB=   116

 **** Warning!!: The largest alpha MO coefficient is  0.48746532D+02

 PrsmSu:  requested number of processors reduced to:  10 ShMem   1 Linda.
 PrsmSu:  requested number of processors reduced to:  18 ShMem   1 Linda.
 Symmetrizing basis deriv contribution to polar:
 IMax=3 JMax=2 DiffMx= 0.00D+00
 G2DrvN: will do     4 centers at a time, making    4 passes doing MaxLOS=2.
 Estimated number of processors is:   15
 Calling FoFCou, ICntrl=  3107 FMM=F I1Cent=   0 AccDes= 0.00D+00.
 CoulSu:  requested number of processors reduced to:  15 ShMem   1 Linda.
 Calling FoFCou, ICntrl=  3107 FMM=F I1Cent=   0 AccDes= 0.00D+00.
 CoulSu:  requested number of processors reduced to:  15 ShMem   1 Linda.
 Calling FoFCou, ICntrl=  3107 FMM=F I1Cent=   0 AccDes= 0.00D+00.
 CoulSu:  requested number of processors reduced to:  15 ShMem   1 Linda.
 Calling FoFCou, ICntrl=  3107 FMM=F I1Cent=   0 AccDes= 0.00D+00.
 CoulSu:  requested number of processors reduced to:  15 ShMem   1 Linda.
 FoFDir/FoFCou used for L=0 through L=2.
 End of G2Drv Frequency-dependent properties file   721 does not exist.
 End of G2Drv Frequency-dependent properties file   722 does not exist.
          IDoAtm=111111111111
          Differentiating once with respect to electric field.
                with respect to dipole field.
          Differentiating once with respect to nuclear coordinates.
 PrRfSu:  requested number of processors reduced to:  15 ShMem   1 Linda.
 CalDSu:  requested number of processors reduced to:  19 ShMem   1 Linda.
          There are    39 degrees of freedom in the 1st order CPHF.  IDoFFX=5.
     36 vectors produced by pass  0 Test12= 6.25D-15 2.56D-09 XBig12= 1.44D+02 5.07D+00.
 AX will form    36 AO Fock derivatives at one time.
 PrRfSu:  requested number of processors reduced to:  15 ShMem   1 Linda.
 CalDSu:  requested number of processors reduced to:  20 ShMem   1 Linda.
     36 vectors produced by pass  1 Test12= 6.25D-15 2.56D-09 XBig12= 7.76D+01 2.69D+00.
 PrRfSu:  requested number of processors reduced to:  15 ShMem   1 Linda.
 CalDSu:  requested number of processors reduced to:  20 ShMem   1 Linda.
     36 vectors produced by pass  2 Test12= 6.25D-15 2.56D-09 XBig12= 2.92D-01 1.56D-01.
 PrRfSu:  requested number of processors reduced to:  15 ShMem   1 Linda.
 CalDSu:  requested number of processors reduced to:  20 ShMem   1 Linda.
     36 vectors produced by pass  3 Test12= 6.25D-15 2.56D-09 XBig12= 1.47D-03 7.37D-03.
 PrRfSu:  requested number of processors reduced to:  15 ShMem   1 Linda.
 CalDSu:  requested number of processors reduced to:  20 ShMem   1 Linda.
     36 vectors produced by pass  4 Test12= 6.25D-15 2.56D-09 XBig12= 3.79D-06 3.52D-04.
 PrRfSu:  requested number of processors reduced to:  15 ShMem   1 Linda.
 CalDSu:  requested number of processors reduced to:  20 ShMem   1 Linda.
     30 vectors produced by pass  5 Test12= 6.25D-15 2.56D-09 XBig12= 4.70D-09 1.09D-05.
 PrRfSu:  requested number of processors reduced to:  16 ShMem   1 Linda.
 CalDSu:  requested number of processors reduced to:  21 ShMem   1 Linda.
      7 vectors produced by pass  6 Test12= 6.25D-15 2.56D-09 XBig12= 4.69D-12 3.20D-07.
 PrRfSu:  requested number of processors reduced to:  18 ShMem   1 Linda.
      4 vectors produced by pass  7 Test12= 6.25D-15 2.56D-09 XBig12= 2.68D-14 3.68D-08.
      1 vectors produced by pass  8 Test12= 6.25D-15 2.56D-09 XBig12= 7.26D-16 6.36D-09.
 Inverted reduced A of dimension   222 with in-core refinement.
 Isotropic polarizability for W=    0.000000       70.85 Bohr**3.
 End of Minotr Frequency-dependent properties file   721 does not exist.
 End of Minotr Frequency-dependent properties file   722 does not exist.
 PrsmSu:  requested number of processors reduced to:  10 ShMem   1 Linda.
 PrsmSu:  requested number of processors reduced to:  11 ShMem   1 Linda.
 Calling FoFJK, ICntrl=    100127 FMM=F ISym2X=0 I1Cent= 0 IOpClX= 0 NMat=1 NMatS=1 NMatT=0.
 CoulSu:  requested number of processors reduced to:  11 ShMem   1 Linda.
 -------------------------------------------------------------------
 Center     Atomic                   Forces (Hartrees/Bohr)
 Number     Number              X              Y              Z
 -------------------------------------------------------------------
      1        6           0.005864982   -0.001905818    0.000665055
      2        8          -0.007089802   -0.004004215   -0.004855273
      3        6          -0.018234450    0.001782559   -0.017367896
      4        6           0.004581566    0.008853060    0.002760218
      5        1           0.005218902    0.003403693    0.001005385
      6        1          -0.002107061    0.004198663    0.001387610
      7        1           0.008290959    0.011926630    0.005970927
      8        1           0.007121053   -0.013431891    0.002678081
      9        1           0.007023586   -0.009864390    0.000041362
     10        1          -0.004687982    0.000349082   -0.012265620
     11        1          -0.006120486    0.000495534    0.011238421
     12        8           0.000138734   -0.001802907    0.013741729
 -------------------------------------------------------------------
 Cartesian Forces:  Max     0.018234450 RMS     0.007631631
 -----------------------------------------------------------------------------------------------
                       Internal Coordinate Forces (Hartree/Bohr or radian)
  Cent   Atom   N1       Length/X         N2         Alpha/Y        N3         Beta/Z          J
 -----------------------------------------------------------------------------------------------
      1  C 
      2  O        1  -0.003850(     1)
      3  C        1  -0.003895(     2)      2   0.006431(    12)
      4  C        1  -0.000504(     3)      3   0.000357(    13)      2   0.003239(    22)     0
      5  H        2   0.006301(     4)      1   0.000658(    14)      3   0.000070(    23)     0
      6  H        1   0.004763(     5)      3   0.000664(    15)      4  -0.001994(    24)     0
      7  H        3   0.015695(     6)      1  -0.000913(    16)      4   0.000569(    25)     0
      8  H        3   0.015429(     7)      1  -0.000921(    17)      4  -0.000376(    26)     0
      9  H        4   0.012088(     8)      1  -0.001187(    18)      3  -0.000782(    27)     0
     10  H        4   0.012962(     9)      1  -0.002048(    19)      3   0.003573(    28)     0
     11  H        4   0.012446(    10)      1  -0.004393(    20)      3  -0.004049(    29)     0
     12  O        3  -0.012918(    11)      1  -0.013397(    21)      4  -0.000163(    30)     0
 -----------------------------------------------------------------------------------------------
 Internal  Forces:  Max     0.015695243 RMS     0.007085389

 GradGradGradGradGradGradGradGradGradGradGradGradGradGradGradGradGradGrad
 Berny optimization.
 Search for a saddle point.
 Step number   2 out of a maximum of   39
 All quantities printed in internal units (Hartrees-Bohrs-Radians)
 Swaping is turned off.
 Second derivative matrix not updated -- analytic derivatives used.
 ITU=  0  0
     Eigenvalues ---    0.00025   0.00263   0.00737   0.03341   0.04358
     Eigenvalues ---    0.07641   0.10837   0.11547   0.12418   0.13930
     Eigenvalues ---    0.14948   0.17373   0.23194   0.27855   0.29151
     Eigenvalues ---    0.29536   0.31587   0.33304   0.34914   0.36642
     Eigenvalues ---    0.37559   0.37890   0.38148   0.38415   0.38683
     Eigenvalues ---    0.39589   0.46738   0.52037   0.53795
 Eigenvectors required to have negative eigenvalues:
                          D6        D8        D7        D3        A10
   1                    0.53344   0.53082   0.52436   0.20963   0.18417
                          D2        D5        A3        D1        D9
   1                   -0.15819  -0.14878  -0.10214  -0.08380  -0.07236
 RFO step:  Lambda0=2.960469193D-03 Lambda=-6.31083623D-03.
 Linear search not attempted -- option 19 set.
 Maximum step size (   0.300) exceeded in Quadratic search.
    -- Step size scaled by   0.271
 Variable       Old X    -DE/DX   Delta X   Delta X   Delta X     New X
                                 (Linear)    (Quad)   (Total)
    B1        2.75871  -0.00389   0.00000   0.00248   0.00248   2.76119
    B2        2.82906  -0.00050   0.00000   0.00139   0.00139   2.83045
    B3        1.81873   0.00630   0.00000   0.00315   0.00315   1.82187
    B4        2.02814   0.00476   0.00000   0.00342   0.00342   2.03156
    B5        2.04301   0.01570   0.00000   0.01364   0.01364   2.05665
    B6        2.04222   0.01543   0.00000   0.01307   0.01307   2.05530
    B7        2.03516   0.01209   0.00000   0.00934   0.00934   2.04450
    B8        2.03460   0.01296   0.00000   0.00825   0.00825   2.04285
    B9        2.03433   0.01245   0.00000   0.00771   0.00771   2.04204
   B10        2.66697  -0.01292   0.00000  -0.01668  -0.01668   2.65029
    A1        1.83318   0.00643   0.00000   0.02464   0.02464   1.85782
    A2        2.14003   0.00036   0.00000   0.00132   0.00132   2.14135
    A3        1.67341   0.00066   0.00000  -0.00825  -0.00825   1.66517
    A4        2.02764   0.00066   0.00000  -0.00309  -0.00309   2.02455
    A5        2.02317  -0.00091   0.00000  -0.00293  -0.00293   2.02023
    A6        2.01212  -0.00092   0.00000  -0.00272  -0.00272   2.00941
    A7        1.94195  -0.00119   0.00000  -0.00272  -0.00272   1.93923
    A8        1.93303  -0.00205   0.00000  -0.00253  -0.00253   1.93051
    A9        1.90822  -0.00439   0.00000   0.00036   0.00036   1.90858
   A10        1.45003  -0.01340   0.00000   0.00368   0.00368   1.45372
    D1       -1.86662   0.00324   0.00000   0.00357   0.00357  -1.86305
    D2        0.57174   0.00007   0.00000  -0.04679  -0.04679   0.52495
    D3       -2.77328  -0.00199   0.00000   0.00977   0.00977  -2.76351
    D4       -2.87304   0.00057   0.00000   0.00454   0.00454  -2.86850
    D5       -0.60025  -0.00038   0.00000  -0.00963  -0.00963  -0.60987
    D6        0.45342  -0.00078   0.00000   0.17224   0.17224   0.62566
    D7       -1.66162   0.00357   0.00000   0.17299   0.17299  -1.48864
    D8        2.54780  -0.00405   0.00000   0.16243   0.16243   2.71022
    D9        1.40504  -0.00016   0.00000  -0.00214  -0.00214   1.40290
         Item               Value     Threshold  Converged?
 Maximum Force            0.015695     0.000450     NO 
 RMS     Force            0.007171     0.000300     NO 
 Maximum Displacement     0.172988     0.001800     NO 
 RMS     Displacement     0.055709     0.001200     NO 
 Predicted change in Energy=-6.963813D-04
 GradGradGradGradGradGradGradGradGradGradGradGradGradGradGradGradGradGrad

 ---------------------------------------------------------------------------------------------------
                            Z-MATRIX (ANGSTROMS AND DEGREES)
   CD    Cent   Atom    N1       Length/X        N2       Alpha/Y        N3        Beta/Z          J
 ---------------------------------------------------------------------------------------------------
      1      1  C 
      2      2  O        1   2.246546(     1)
      3      3  C        1   1.461159(     2)      2  106.445(    12)
      4      4  C        1   1.497810(     3)      3  122.690(    13)      2 -106.745(    22)      0
      5      5  H        2   0.964093(     4)      1   95.407(    14)      3   30.077(    23)      0
      6      6  H        1   1.075058(     5)      3  115.998(    15)      4 -158.338(    24)      0
      7      7  H        3   1.088333(     6)      1  115.751(    16)      4 -164.353(    25)      0
      8      8  H        3   1.087616(     7)      1  115.130(    17)      4  -34.943(    26)      0
      9      9  H        4   1.081904(     8)      1  111.109(    18)      3   35.848(    27)      0
     10     10  H        4   1.081032(     9)      1  110.610(    19)      3  -85.293(    28)      0
     11     11  H        4   1.080598(    10)      1  109.353(    20)      3  155.284(    29)      0
     12     12  O        3   1.402472(    11)      1   83.292(    21)      4   80.380(    30)      0
 ---------------------------------------------------------------------------------------------------
                         Z-Matrix orientation:                         
 ---------------------------------------------------------------------
 Center     Atomic      Atomic             Coordinates (Angstroms)
 Number     Number       Type             X           Y           Z
 ---------------------------------------------------------------------
      1          6           0        0.000000    0.000000    0.000000
      2          8           0        0.000000    0.000000    2.246546
      3          6           0        1.401383    0.000000   -0.413656
      4          6           0       -0.878683   -1.207110   -0.119311
      5          1           0        0.830565    0.481025    2.337392
      6          1           0       -0.475414    0.962713    0.053971
      7          1           0        2.003541    0.827727   -0.043869
      8          1           0        1.931434   -0.935416   -0.249484
      9          1           0       -0.322707   -2.114558    0.075489
     10          1           0       -1.311931   -1.266185   -1.107966
     11          1           0       -1.679958   -1.139537    0.602552
     12          8           0        0.852982    0.172770   -1.692849
 ---------------------------------------------------------------------
                    Distance matrix (angstroms):
                    1          2          3          4          5
     1  C    0.000000
     2  O    2.246546   0.000000
     3  C    1.461159   3.006750   0.000000
     4  C    1.497810   2.797585   2.596624   0.000000
     5  H    2.526781   0.964093   2.850523   3.436091   0.000000
     6  H    1.075058   2.441356   2.160523   2.213772   2.674251
     7  H    2.168233   3.153618   1.088333   3.528948   2.677028
     8  H    2.160482   3.291748   1.087616   2.826220   3.148037
     9  H    2.140372   3.047783   2.771841   1.081904   3.630880
    10  H    2.133536   3.818001   3.073656   1.081032   4.417411
    11  H    2.117515   2.612187   3.438878   1.080598   3.455230
    12  O    1.903462   4.034385   1.402472   2.716387   4.042075
                    6          7          8          9         10
     6  H    0.000000
     7  H    2.484555   0.000000
     8  H    3.080243   1.776556   0.000000
     9  H    3.081133   3.752695   2.564592   0.000000
    10  H    2.649122   4.063142   3.371322   1.760359   0.000000
    11  H    2.484215   4.225654   3.716151   1.752310   1.754239
    12  O    2.332387   2.114685   2.115287   3.121079   2.664495
                   11         12
    11  H    0.000000
    12  O    3.661530   0.000000
 Symmetry turned off by external request.
 Stoichiometry    C3H7O2(1-)
 Framework group  C1[X(C3H7O2)]
 Deg. of freedom    30
 Full point group                 C1      NOp   1
 Rotational constants (GHZ):      7.4104148      3.2655068      2.4899372
 Standard basis: 6-31++G(d,p) (6D, 7F)
 The following finite field(s) will be applied:
 An electric field of              0.0000  0.0000  0.0050
 Integral buffers will be    131072 words long.
 Raffenetti 2 integral format.
 Two-electron integral symmetry is turned off.
   137 basis functions,   216 primitive gaussians,   137 cartesian basis functions
    21 alpha electrons       21 beta electrons
       nuclear repulsion energy       175.3513970175 Hartrees.
 NAtoms=   12 NActive=   12 NUniq=   12 SFac= 1.00D+00 NAtFMM=   50 NAOKFM=F Big=F
 One-electron integrals computed using PRISM.
 PrsmSu:  requested number of processors reduced to:  10 ShMem   1 Linda.
 NBasis=   137 RedAO= T  NBF=   137
 NBsUse=   137 1.00D-06 NBFU=   137
 The nuclear repulsion energy is now       175.3787966538 hartrees.
 Initial guess read from the read-write file.
 B after Tr=     0.000000    0.000000    0.000000
         Rot=    1.000000    0.000000    0.000000    0.000000 Ang=   0.00 deg.
 Harris functional with IExCor=  402 diagonalized for initial guess.
 ExpMin= 3.60D-02 ExpMax= 5.48D+03 ExpMxC= 8.25D+02 IAcc=3 IRadAn=         0 AccDes= 0.00D+00
 HarFok:  IExCor=  402 AccDes= 0.00D+00 IRadAn=         0 IDoV= 1
 ScaDFX=  1.000000  1.000000  1.000000  1.000000
 FoFCou: FMM=F IPFlag=           0 FMFlag=      100000 FMFlg1=           0
         NFxFlg=           0 DoJE=T BraDBF=F KetDBF=T FulRan=T
         Omega=  0.000000  0.000000  1.000000  0.000000  0.000000 ICntrl=     500 IOpCl=  0
         NMat0=    1 NMatS0=    1 NMatT0=    0 NMatD0=    1 NMtDS0=    0 NMtDT0=    0
         I1Cent=           4 NGrid=           0.
 Symmetry not used in FoFCou.
 Requested convergence on RMS density matrix=1.00D-08 within 128 cycles.
 Requested convergence on MAX density matrix=1.00D-06.
 Requested convergence on             energy=1.00D-06.
 No special actions if energy rises.
 SCF Done:  E(RB3LYP) =  -268.944700673     A.U. after   12 cycles
             Convg  =    0.3197D-08             -V/T =  2.0093
 Range of M.O.s used for correlation:     1   137
 NBasis=   137 NAE=    21 NBE=    21 NFC=     0 NFV=     0
 NROrb=    137 NOA=    21 NOB=    21 NVA=   116 NVB=   116

 **** Warning!!: The largest alpha MO coefficient is  0.44998592D+02

 PrsmSu:  requested number of processors reduced to:  10 ShMem   1 Linda.
 PrsmSu:  requested number of processors reduced to:  18 ShMem   1 Linda.
 Symmetrizing basis deriv contribution to polar:
 IMax=3 JMax=2 DiffMx= 0.00D+00
 G2DrvN: will do     4 centers at a time, making    4 passes doing MaxLOS=2.
 Estimated number of processors is:   15
 Calling FoFCou, ICntrl=  3107 FMM=F I1Cent=   0 AccDes= 0.00D+00.
 CoulSu:  requested number of processors reduced to:  15 ShMem   1 Linda.
 Calling FoFCou, ICntrl=  3107 FMM=F I1Cent=   0 AccDes= 0.00D+00.
 CoulSu:  requested number of processors reduced to:  15 ShMem   1 Linda.
 Calling FoFCou, ICntrl=  3107 FMM=F I1Cent=   0 AccDes= 0.00D+00.
 CoulSu:  requested number of processors reduced to:  15 ShMem   1 Linda.
 Calling FoFCou, ICntrl=  3107 FMM=F I1Cent=   0 AccDes= 0.00D+00.
 CoulSu:  requested number of processors reduced to:  15 ShMem   1 Linda.
 FoFDir/FoFCou used for L=0 through L=2.
 End of G2Drv Frequency-dependent properties file   721 does not exist.
 End of G2Drv Frequency-dependent properties file   722 does not exist.
          IDoAtm=111111111111
          Differentiating once with respect to electric field.
                with respect to dipole field.
          Differentiating once with respect to nuclear coordinates.
 PrRfSu:  requested number of processors reduced to:  15 ShMem   1 Linda.
 CalDSu:  requested number of processors reduced to:  19 ShMem   1 Linda.
          There are    39 degrees of freedom in the 1st order CPHF.  IDoFFX=5.
     36 vectors produced by pass  0 Test12= 6.25D-15 2.56D-09 XBig12= 1.46D+02 5.40D+00.
 AX will form    36 AO Fock derivatives at one time.
 PrRfSu:  requested number of processors reduced to:  15 ShMem   1 Linda.
 CalDSu:  requested number of processors reduced to:  20 ShMem   1 Linda.
     36 vectors produced by pass  1 Test12= 6.25D-15 2.56D-09 XBig12= 8.07D+01 2.71D+00.
 PrRfSu:  requested number of processors reduced to:  15 ShMem   1 Linda.
 CalDSu:  requested number of processors reduced to:  20 ShMem   1 Linda.
     36 vectors produced by pass  2 Test12= 6.25D-15 2.56D-09 XBig12= 3.06D-01 1.55D-01.
 PrRfSu:  requested number of processors reduced to:  15 ShMem   1 Linda.
 CalDSu:  requested number of processors reduced to:  20 ShMem   1 Linda.
     36 vectors produced by pass  3 Test12= 6.25D-15 2.56D-09 XBig12= 1.46D-03 7.22D-03.
 PrRfSu:  requested number of processors reduced to:  15 ShMem   1 Linda.
 CalDSu:  requested number of processors reduced to:  20 ShMem   1 Linda.
     36 vectors produced by pass  4 Test12= 6.25D-15 2.56D-09 XBig12= 3.56D-06 3.11D-04.
 PrRfSu:  requested number of processors reduced to:  15 ShMem   1 Linda.
 CalDSu:  requested number of processors reduced to:  20 ShMem   1 Linda.
     29 vectors produced by pass  5 Test12= 6.25D-15 2.56D-09 XBig12= 4.56D-09 1.08D-05.
 PrRfSu:  requested number of processors reduced to:  16 ShMem   1 Linda.
 CalDSu:  requested number of processors reduced to:  21 ShMem   1 Linda.
      8 vectors produced by pass  6 Test12= 6.25D-15 2.56D-09 XBig12= 4.60D-12 2.66D-07.
 PrRfSu:  requested number of processors reduced to:  18 ShMem   1 Linda.
      5 vectors produced by pass  7 Test12= 6.25D-15 2.56D-09 XBig12= 1.70D-14 3.58D-08.
 Inverted reduced A of dimension   222 with in-core refinement.
 Isotropic polarizability for W=    0.000000       71.06 Bohr**3.
 End of Minotr Frequency-dependent properties file   721 does not exist.
 End of Minotr Frequency-dependent properties file   722 does not exist.
 PrsmSu:  requested number of processors reduced to:  10 ShMem   1 Linda.
 PrsmSu:  requested number of processors reduced to:  11 ShMem   1 Linda.
 Calling FoFJK, ICntrl=    100127 FMM=F ISym2X=0 I1Cent= 0 IOpClX= 0 NMat=1 NMatS=1 NMatT=0.
 CoulSu:  requested number of processors reduced to:  11 ShMem   1 Linda.
 -------------------------------------------------------------------
 Center     Atomic                   Forces (Hartrees/Bohr)
 Number     Number              X              Y              Z
 -------------------------------------------------------------------
      1        6           0.003630823   -0.000678123    0.001751599
      2        8          -0.005333359   -0.002821525   -0.005498478
      3        6          -0.013310139    0.000698096   -0.011380127
      4        6           0.003622294    0.006153160    0.002255227
      5        1           0.003901492    0.002387047    0.000823302
      6        1          -0.001386015    0.003106696    0.001304139
      7        1           0.006229033    0.008776247    0.004266951
      8        1           0.005332773   -0.009952675    0.001783100
      9        1           0.005137622   -0.007165993    0.001266687
     10        1          -0.002546131   -0.000537223   -0.009287154
     11        1          -0.005333445    0.001083141    0.007735850
     12        8           0.000055051   -0.001048849    0.009978904
 -------------------------------------------------------------------
 Cartesian Forces:  Max     0.013310139 RMS     0.005549437
 -----------------------------------------------------------------------------------------------
                       Internal Coordinate Forces (Hartree/Bohr or radian)
  Cent   Atom   N1       Length/X         N2         Alpha/Y        N3         Beta/Z          J
 -----------------------------------------------------------------------------------------------
      1  C 
      2  O        1  -0.004675(     1)
      3  C        1  -0.002940(     2)      2   0.004842(    12)
      4  C        1  -0.000297(     3)      3  -0.000245(    13)      2   0.002346(    22)     0
      5  H        2   0.004630(     4)      1   0.000708(    14)      3   0.000200(    23)     0
      6  H        1   0.003460(     5)      3   0.000411(    15)      4  -0.002048(    24)     0
      7  H        3   0.011571(     6)      1  -0.000596(    16)      4   0.000450(    25)     0
      8  H        3   0.011428(     7)      1  -0.000553(    17)      4   0.000092(    26)     0
      9  H        4   0.008879(     8)      1  -0.001178(    18)      3  -0.000827(    27)     0
     10  H        4   0.009543(     9)      1  -0.001512(    19)      3   0.002262(    28)     0
     11  H        4   0.009190(    10)      1  -0.003043(    20)      3  -0.003213(    29)     0
     12  O        3  -0.009252(    11)      1  -0.010282(    21)      4   0.000390(    30)     0
 -----------------------------------------------------------------------------------------------
 Internal  Forces:  Max     0.011570964 RMS     0.005285762

 GradGradGradGradGradGradGradGradGradGradGradGradGradGradGradGradGradGrad
 Berny optimization.
 Search for a saddle point.
 Step number   3 out of a maximum of   39
 All quantities printed in internal units (Hartrees-Bohrs-Radians)
 Swaping is turned off.
 Second derivative matrix not updated -- analytic derivatives used.
 ITU=  0  0  0
     Eigenvalues ---   -0.00002   0.00253   0.00682   0.03379   0.04437
     Eigenvalues ---    0.07717   0.11104   0.11238   0.12312   0.13964
     Eigenvalues ---    0.15040   0.17415   0.23084   0.27642   0.29321
     Eigenvalues ---    0.29724   0.31480   0.32807   0.33486   0.36622
     Eigenvalues ---    0.36877   0.37123   0.37206   0.37551   0.38901
     Eigenvalues ---    0.39652   0.46980   0.52554   0.53189
 Eigenvectors required to have negative eigenvalues:
                          D8        D6        D7        D3        A10
   1                    0.55779   0.55645   0.55436   0.14549   0.13868
                          A3        D5        D2        D1        A5
   1                   -0.08409  -0.08137  -0.07167  -0.05690  -0.03747
 RFO step:  Lambda0=2.375104529D-03 Lambda=-4.31065587D-03.
 Linear search not attempted -- option 19 set.
 Maximum step size (   0.300) exceeded in Quadratic search.
    -- Step size scaled by   0.279
 Variable       Old X    -DE/DX   Delta X   Delta X   Delta X     New X
                                 (Linear)    (Quad)   (Total)
    B1        2.76119  -0.00294   0.00000  -0.00086  -0.00086   2.76033
    B2        2.83045  -0.00030   0.00000   0.00242   0.00242   2.83287
    B3        1.82187   0.00463   0.00000   0.00251   0.00251   1.82438
    B4        2.03156   0.00346   0.00000   0.00146   0.00146   2.03303
    B5        2.05665   0.01157   0.00000   0.00960   0.00960   2.06625
    B6        2.05530   0.01143   0.00000   0.00938   0.00938   2.06468
    B7        2.04450   0.00888   0.00000   0.00708   0.00708   2.05158
    B8        2.04285   0.00954   0.00000   0.00637   0.00637   2.04922
    B9        2.04204   0.00919   0.00000   0.00593   0.00593   2.04796
   B10        2.65029  -0.00925   0.00000  -0.00790  -0.00790   2.64239
    A1        1.85782   0.00484   0.00000   0.01894   0.01894   1.87677
    A2        2.14135  -0.00024   0.00000  -0.00182  -0.00182   2.13952
    A3        1.66517   0.00071   0.00000  -0.00102  -0.00102   1.66415
    A4        2.02455   0.00041   0.00000   0.00129   0.00129   2.02584
    A5        2.02023  -0.00060   0.00000   0.00357   0.00357   2.02381
    A6        2.00941  -0.00055   0.00000   0.00216   0.00216   2.01156
    A7        1.93923  -0.00118   0.00000  -0.00697  -0.00697   1.93225
    A8        1.93051  -0.00151   0.00000  -0.00215  -0.00215   1.92836
    A9        1.90858  -0.00304   0.00000   0.00475   0.00475   1.91333
   A10        1.45372  -0.01028   0.00000  -0.01401  -0.01401   1.43971
    D1       -1.86305   0.00235   0.00000   0.01637   0.01637  -1.84668
    D2        0.52495   0.00020   0.00000  -0.00305  -0.00305   0.52190
    D3       -2.76351  -0.00205   0.00000  -0.02074  -0.02074  -2.78426
    D4       -2.86850   0.00045   0.00000   0.01902   0.01902  -2.84948
    D5       -0.60987   0.00009   0.00000   0.02323   0.02323  -0.58665
    D6        0.62566  -0.00083   0.00000   0.17321   0.17321   0.79887
    D7       -1.48864   0.00226   0.00000   0.17344   0.17344  -1.31520
    D8        2.71022  -0.00321   0.00000   0.16379   0.16379   2.87401
    D9        1.40290   0.00039   0.00000   0.02102   0.02102   1.42391
         Item               Value     Threshold  Converged?
 Maximum Force            0.011571     0.000450     NO 
 RMS     Force            0.005306     0.000300     NO 
 Maximum Displacement     0.173440     0.001800     NO 
 RMS     Displacement     0.055709     0.001200     NO 
 Predicted change in Energy=-4.008281D-04
 GradGradGradGradGradGradGradGradGradGradGradGradGradGradGradGradGradGrad

 ---------------------------------------------------------------------------------------------------
                            Z-MATRIX (ANGSTROMS AND DEGREES)
   CD    Cent   Atom    N1       Length/X        N2       Alpha/Y        N3        Beta/Z          J
 ---------------------------------------------------------------------------------------------------
      1      1  C 
      2      2  O        1   2.246546(     1)
      3      3  C        1   1.460703(     2)      2  107.531(    12)
      4      4  C        1   1.499090(     3)      3  122.586(    13)      2 -105.807(    22)      0
      5      5  H        2   0.965420(     4)      1   95.349(    14)      3   29.902(    23)      0
      6      6  H        1   1.075831(     5)      3  116.072(    15)      4 -159.526(    24)      0
      7      7  H        3   1.093412(     6)      1  115.956(    16)      4 -163.263(    25)      0
      8      8  H        3   1.092580(     7)      1  115.254(    17)      4  -33.612(    26)      0
      9      9  H        4   1.085649(     8)      1  110.710(    18)      3   45.772(    27)      0
     10     10  H        4   1.084403(     9)      1  110.487(    19)      3  -75.355(    28)      0
     11     11  H        4   1.083734(    10)      1  109.626(    20)      3  164.669(    29)      0
     12     12  O        3   1.398291(    11)      1   82.489(    21)      4   81.584(    30)      0
 ---------------------------------------------------------------------------------------------------
                         Z-Matrix orientation:                         
 ---------------------------------------------------------------------
 Center     Atomic      Atomic             Coordinates (Angstroms)
 Number     Number       Type             X           Y           Z
 ---------------------------------------------------------------------
      1          6           0        0.000000    0.000000    0.000000
      2          8           0        0.000000    0.000000    2.246546
      3          6           0        1.392861    0.000000   -0.439992
      4          6           0       -0.873493   -1.215349   -0.084898
      5          1           0        0.833255    0.479190    2.336541
      6          1           0       -0.474557    0.963150    0.067453
      7          1           0        2.008498    0.828754   -0.079841
      8          1           0        1.928360   -0.940824   -0.292268
      9          1           0       -0.348496   -2.091874    0.282138
     10          1           0       -1.184490   -1.388414   -1.109232
     11          1           0       -1.754823   -1.073829    0.529682
     12          8           0        0.804472    0.178339   -1.695863
 ---------------------------------------------------------------------
                    Distance matrix (angstroms):
                    1          2          3          4          5
     1  C    0.000000
     2  O    2.246546   0.000000
     3  C    1.460703   3.026144   0.000000
     4  C    1.499090   2.770505   2.596060   0.000000
     5  H    2.526532   0.965420   2.872615   3.412891   0.000000
     6  H    1.075831   2.429261   2.161575   2.219960   2.663335
     7  H    2.174229   3.183233   1.093412   3.533307   2.709667
     8  H    2.165443   3.324048   1.092580   2.822897   3.182189
     9  H    2.139390   2.890724   2.815978   1.085649   3.496781
    10  H    2.135675   3.819942   3.003051   1.084403   4.408242
    11  H    2.124400   2.679577   3.464288   1.083734   3.517777
    12  O    1.885452   4.027601   1.398291   2.711667   4.043714
                    6          7          8          9         10
     6  H    0.000000
     7  H    2.491048   0.000000
     8  H    3.086831   1.784083   0.000000
     9  H    3.065152   3.770480   2.615135   0.000000
    10  H    2.723683   4.021275   3.249247   1.769083   0.000000
    11  H    2.449903   4.260742   3.776126   1.753696   1.763599
    12  O    2.315410   2.117604   2.117955   3.224235   2.599004
                   11         12
    11  H    0.000000
    12  O    3.615379   0.000000
 Symmetry turned off by external request.
 Stoichiometry    C3H7O2(1-)
 Framework group  C1[X(C3H7O2)]
 Deg. of freedom    30
 Full point group                 C1      NOp   1
 Rotational constants (GHZ):      7.4919828      3.2575546      2.4998132
 Standard basis: 6-31++G(d,p) (6D, 7F)
 The following finite field(s) will be applied:
 An electric field of              0.0000  0.0000  0.0050
 Integral buffers will be    131072 words long.
 Raffenetti 2 integral format.
 Two-electron integral symmetry is turned off.
   137 basis functions,   216 primitive gaussians,   137 cartesian basis functions
    21 alpha electrons       21 beta electrons
       nuclear repulsion energy       175.5386876760 Hartrees.
 NAtoms=   12 NActive=   12 NUniq=   12 SFac= 1.00D+00 NAtFMM=   50 NAOKFM=F Big=F
 One-electron integrals computed using PRISM.
 PrsmSu:  requested number of processors reduced to:  10 ShMem   1 Linda.
 NBasis=   137 RedAO= T  NBF=   137
 NBsUse=   137 1.00D-06 NBFU=   137
 The nuclear repulsion energy is now       175.5669446869 hartrees.
 Initial guess read from the read-write file.
 B after Tr=     0.000000    0.000000    0.000000
         Rot=    1.000000    0.000000    0.000000    0.000000 Ang=   0.00 deg.
 Harris functional with IExCor=  402 diagonalized for initial guess.
 ExpMin= 3.60D-02 ExpMax= 5.48D+03 ExpMxC= 8.25D+02 IAcc=3 IRadAn=         0 AccDes= 0.00D+00
 HarFok:  IExCor=  402 AccDes= 0.00D+00 IRadAn=         0 IDoV= 1
 ScaDFX=  1.000000  1.000000  1.000000  1.000000
 FoFCou: FMM=F IPFlag=           0 FMFlag=      100000 FMFlg1=           0
         NFxFlg=           0 DoJE=T BraDBF=F KetDBF=T FulRan=T
         Omega=  0.000000  0.000000  1.000000  0.000000  0.000000 ICntrl=     500 IOpCl=  0
         NMat0=    1 NMatS0=    1 NMatT0=    0 NMatD0=    1 NMtDS0=    0 NMtDT0=    0
         I1Cent=           4 NGrid=           0.
 Symmetry not used in FoFCou.
 Requested convergence on RMS density matrix=1.00D-08 within 128 cycles.
 Requested convergence on MAX density matrix=1.00D-06.
 Requested convergence on             energy=1.00D-06.
 No special actions if energy rises.
 SCF Done:  E(RB3LYP) =  -268.945123148     A.U. after   12 cycles
             Convg  =    0.3639D-08             -V/T =  2.0094
 Range of M.O.s used for correlation:     1   137
 NBasis=   137 NAE=    21 NBE=    21 NFC=     0 NFV=     0
 NROrb=    137 NOA=    21 NOB=    21 NVA=   116 NVB=   116

 **** Warning!!: The largest alpha MO coefficient is  0.43652757D+02

 PrsmSu:  requested number of processors reduced to:  10 ShMem   1 Linda.
 PrsmSu:  requested number of processors reduced to:  18 ShMem   1 Linda.
 Symmetrizing basis deriv contribution to polar:
 IMax=3 JMax=2 DiffMx= 0.00D+00
 G2DrvN: will do     4 centers at a time, making    4 passes doing MaxLOS=2.
 Estimated number of processors is:   15
 Calling FoFCou, ICntrl=  3107 FMM=F I1Cent=   0 AccDes= 0.00D+00.
 CoulSu:  requested number of processors reduced to:  15 ShMem   1 Linda.
 Calling FoFCou, ICntrl=  3107 FMM=F I1Cent=   0 AccDes= 0.00D+00.
 CoulSu:  requested number of processors reduced to:  15 ShMem   1 Linda.
 Calling FoFCou, ICntrl=  3107 FMM=F I1Cent=   0 AccDes= 0.00D+00.
 CoulSu:  requested number of processors reduced to:  15 ShMem   1 Linda.
 Calling FoFCou, ICntrl=  3107 FMM=F I1Cent=   0 AccDes= 0.00D+00.
 CoulSu:  requested number of processors reduced to:  15 ShMem   1 Linda.
 FoFDir/FoFCou used for L=0 through L=2.
 End of G2Drv Frequency-dependent properties file   721 does not exist.
 End of G2Drv Frequency-dependent properties file   722 does not exist.
          IDoAtm=111111111111
          Differentiating once with respect to electric field.
                with respect to dipole field.
          Differentiating once with respect to nuclear coordinates.
 PrRfSu:  requested number of processors reduced to:  15 ShMem   1 Linda.
 CalDSu:  requested number of processors reduced to:  19 ShMem   1 Linda.
          There are    39 degrees of freedom in the 1st order CPHF.  IDoFFX=5.
     36 vectors produced by pass  0 Test12= 6.25D-15 2.56D-09 XBig12= 1.42D+02 5.72D+00.
 AX will form    36 AO Fock derivatives at one time.
 PrRfSu:  requested number of processors reduced to:  15 ShMem   1 Linda.
 CalDSu:  requested number of processors reduced to:  20 ShMem   1 Linda.
     36 vectors produced by pass  1 Test12= 6.25D-15 2.56D-09 XBig12= 8.09D+01 2.71D+00.
 PrRfSu:  requested number of processors reduced to:  15 ShMem   1 Linda.
 CalDSu:  requested number of processors reduced to:  20 ShMem   1 Linda.
     36 vectors produced by pass  2 Test12= 6.25D-15 2.56D-09 XBig12= 3.38D-01 1.62D-01.
 PrRfSu:  requested number of processors reduced to:  15 ShMem   1 Linda.
 CalDSu:  requested number of processors reduced to:  20 ShMem   1 Linda.
     36 vectors produced by pass  3 Test12= 6.25D-15 2.56D-09 XBig12= 1.49D-03 6.71D-03.
 PrRfSu:  requested number of processors reduced to:  15 ShMem   1 Linda.
 CalDSu:  requested number of processors reduced to:  20 ShMem   1 Linda.
     36 vectors produced by pass  4 Test12= 6.25D-15 2.56D-09 XBig12= 3.55D-06 2.49D-04.
 PrRfSu:  requested number of processors reduced to:  15 ShMem   1 Linda.
 CalDSu:  requested number of processors reduced to:  20 ShMem   1 Linda.
     29 vectors produced by pass  5 Test12= 6.25D-15 2.56D-09 XBig12= 4.52D-09 8.64D-06.
 PrRfSu:  requested number of processors reduced to:  16 ShMem   1 Linda.
 CalDSu:  requested number of processors reduced to:  21 ShMem   1 Linda.
      6 vectors produced by pass  6 Test12= 6.25D-15 2.56D-09 XBig12= 4.50D-12 2.61D-07.
      3 vectors produced by pass  7 Test12= 6.25D-15 2.56D-09 XBig12= 2.92D-14 3.00D-08.
      1 vectors produced by pass  8 Test12= 6.25D-15 2.56D-09 XBig12= 3.04D-16 4.61D-09.
 Inverted reduced A of dimension   219 with in-core refinement.
 Isotropic polarizability for W=    0.000000       70.97 Bohr**3.
 End of Minotr Frequency-dependent properties file   721 does not exist.
 End of Minotr Frequency-dependent properties file   722 does not exist.
 PrsmSu:  requested number of processors reduced to:  10 ShMem   1 Linda.
 PrsmSu:  requested number of processors reduced to:  11 ShMem   1 Linda.
 Calling FoFJK, ICntrl=    100127 FMM=F ISym2X=0 I1Cent= 0 IOpClX= 0 NMat=1 NMatS=1 NMatT=0.
 CoulSu:  requested number of processors reduced to:  11 ShMem   1 Linda.
 -------------------------------------------------------------------
 Center     Atomic                   Forces (Hartrees/Bohr)
 Number     Number              X              Y              Z
 -------------------------------------------------------------------
      1        6           0.002041995    0.000001357    0.001429496
      2        8          -0.003835267   -0.002085048   -0.004441154
      3        6          -0.009611950    0.000223951   -0.007040540
      4        6           0.002967382    0.004202664    0.001677864
      5        1           0.002784744    0.001789893    0.000711870
      6        1          -0.000867330    0.002262300    0.001271550
      7        1           0.004619623    0.006305700    0.003002681
      8        1           0.003933620   -0.007254025    0.000972612
      9        1           0.003673326   -0.004951530    0.001936744
     10        1          -0.001202318   -0.001076123   -0.006847706
[...]
 Center     Atomic                   Forces (Hartrees/Bohr)
 Number     Number              X              Y              Z
 -------------------------------------------------------------------
      1        6          -0.000171775   -0.000212709   -0.017274135
      2        8           0.000171597    0.000290157    0.022273948
      3        6           0.000000445   -0.000076866    0.000000012
      4        6          -0.000000119   -0.000000222   -0.000000349
      5        1          -0.000000164    0.000000158    0.000000495
      6        1           0.000000152    0.000000039   -0.000000016
      7        1          -0.000000133   -0.000000084    0.000000047
      8        1          -0.000000049   -0.000000032   -0.000000008
      9        1           0.000000005   -0.000000123   -0.000000110
     10        1           0.000000046   -0.000000058   -0.000000187
     11        1           0.000000072    0.000000034    0.000000002
     12        8          -0.000000076   -0.000000294    0.000000303
 -------------------------------------------------------------------
 Cartesian Forces:  Max     0.022273948 RMS     0.004698459
 -----------------------------------------------------------------------------------------------
                       Internal Coordinate Forces (Hartree/Bohr or radian)
  Cent   Atom   N1       Length/X         N2         Alpha/Y        N3         Beta/Z          J
 -----------------------------------------------------------------------------------------------
      1  C 
      2  O        1   0.022274(     1)
      3  C        1   0.000000(     2)      2  -0.000001(    12)
      4  C        1   0.000000(     3)      3  -0.000001(    13)      2  -0.000001(    22)     0
      5  H        2   0.000000(     4)      1   0.000001(    14)      3   0.000000(    23)     0
      6  H        1   0.000000(     5)      3   0.000000(    15)      4   0.000000(    24)     0
      7  H        3   0.000000(     6)      1   0.000000(    16)      4   0.000000(    25)     0
      8  H        3   0.000000(     7)      1   0.000000(    17)      4   0.000000(    26)     0
      9  H        4   0.000000(     8)      1   0.000000(    18)      3   0.000000(    27)     0
     10  H        4   0.000000(     9)      1   0.000000(    19)      3   0.000000(    28)     0
     11  H        4   0.000000(    10)      1   0.000000(    20)      3   0.000000(    29)     0
     12  O        3   0.000000(    11)      1  -0.000001(    21)      4  -0.000001(    30)     0
 -----------------------------------------------------------------------------------------------
 Internal  Forces:  Max     0.022274442 RMS     0.004066738

 GradGradGradGradGradGradGradGradGradGradGradGradGradGradGradGradGradGrad
 Berny optimization.
 Search for a saddle point.
 Step number   1 out of a maximum of    2
 All quantities printed in internal units (Hartrees-Bohrs-Radians)
 Swaping is turned off.
 Second derivative matrix not updated -- analytic derivatives used.
 ITU=  0
     Eigenvalues ---   -0.00268   0.00303   0.01167   0.02037   0.07426
     Eigenvalues ---    0.09576   0.11373   0.12090   0.12172   0.13693
     Eigenvalues ---    0.15312   0.19855   0.22811   0.25557   0.29264
     Eigenvalues ---    0.30591   0.32046   0.33224   0.33897   0.34505
     Eigenvalues ---    0.34713   0.35281   0.35976   0.36952   0.37995
     Eigenvalues ---    0.41298   0.50603   0.60139   0.75031
 Eigenvectors required to have negative eigenvalues:
                          D8        D6        D7        D2        A3
   1                    0.58325   0.57370   0.55267   0.10193   0.05874
                          D3        D5        D9        D4        A7
   1                   -0.05575   0.05460   0.04204   0.03485  -0.02493
 Angle between quadratic step and forces=  71.75 degrees.
 Linear search not attempted -- option 19 set.
 Variable       Old X    -DE/DX   Delta X   Delta X   Delta X     New X
                                 (Linear)    (Quad)   (Total)
    B1        2.74027   0.00000   0.00000   0.00000   0.00000   2.74027
    B2        2.85243   0.00000   0.00000   0.00000   0.00000   2.85243
    B3        1.83326   0.00000   0.00000   0.00000   0.00000   1.83326
    B4        2.03658   0.00000   0.00000   0.00000   0.00000   2.03658
    B5        2.07453   0.00000   0.00000   0.00000   0.00000   2.07453
    B6        2.07393   0.00000   0.00000   0.00000   0.00000   2.07393
    B7        2.06693   0.00000   0.00000   0.00000   0.00000   2.06693
    B8        2.07192   0.00000   0.00000   0.00000   0.00000   2.07192
    B9        2.06656   0.00000   0.00000   0.00000   0.00000   2.06656
   B10        2.68334   0.00000   0.00000   0.00000   0.00000   2.68334
    A1        1.83420   0.00000   0.00000  -0.00001  -0.00001   1.83418
    A2        2.13711   0.00000   0.00000   0.00000   0.00000   2.13711
    A3        1.85728   0.00000   0.00000   0.00006   0.00006   1.85734
    A4        2.06646   0.00000   0.00000   0.00000   0.00000   2.06646
    A5        2.08220   0.00000   0.00000   0.00000   0.00000   2.08219
    A6        2.06628   0.00000   0.00000   0.00000   0.00000   2.06628
    A7        1.91835   0.00000   0.00000   0.00000   0.00000   1.91836
    A8        1.92481   0.00000   0.00000   0.00000   0.00000   1.92480
    A9        1.91748   0.00000   0.00000   0.00000   0.00000   1.91749
   A10        1.18425   0.00000   0.00000  -0.00001  -0.00001   1.18425
    D1       -1.64252   0.00000   0.00000   0.00001   0.00001  -1.64251
    D2        0.76530   0.00000   0.00000   0.00013   0.00013   0.76543
    D3       -3.23656   0.00000   0.00000  -0.00001  -0.00001  -3.23657
    D4       -2.75334   0.00000   0.00000   0.00000   0.00000  -2.75334
    D5       -0.25612   0.00000   0.00000   0.00000   0.00000  -0.25611
    D6        0.92146   0.00000   0.00000  -0.00001  -0.00001   0.92145
    D7       -1.20755   0.00000   0.00000  -0.00001  -0.00001  -1.20755
    D8        2.96685   0.00000   0.00000  -0.00001  -0.00001   2.96684
    D9        1.63571   0.00000   0.00000   0.00000   0.00000   1.63571
         Item               Value     Threshold  Converged?
 Maximum Force            0.000001     0.000450     YES
 RMS     Force            0.000000     0.000300     YES
 Maximum Displacement     0.000129     0.001800     YES
 RMS     Displacement     0.000027     0.001200     YES
 Predicted change in Energy=-5.920329D-11
 Optimization completed.
    -- Stationary point found.
                       ----------------------------
                       !   Optimized Parameters   !
                       ! (Angstroms and Degrees)  !
 ----------------------                            ----------------------
 !      Name          Value   Derivative information (Atomic Units)     !
 ------------------------------------------------------------------------
 !       B1          1.4501   -DE/DX =    0.0                           !
 !       B2          1.5094   -DE/DX =    0.0                           !
 !       B3          0.9701   -DE/DX =    0.0                           !
 !       B4          1.0777   -DE/DX =    0.0                           !
 !       B5          1.0978   -DE/DX =    0.0                           !
 !       B6          1.0975   -DE/DX =    0.0                           !
 !       B7          1.0938   -DE/DX =    0.0                           !
 !       B8          1.0964   -DE/DX =    0.0                           !
 !       B9          1.0936   -DE/DX =    0.0                           !
 !       B10         1.42     -DE/DX =    0.0                           !
 !       A1        105.0918   -DE/DX =    0.0                           !
 !       A2        122.4475   -DE/DX =    0.0                           !
 !       A3        106.4145   -DE/DX =    0.0                           !
 !       A4        118.3994   -DE/DX =    0.0                           !
 !       A5        119.301    -DE/DX =    0.0                           !
 !       A6        118.3893   -DE/DX =    0.0                           !
 !       A7        109.9136   -DE/DX =    0.0                           !
 !       A8        110.2832   -DE/DX =    0.0                           !
 !       A9        109.8638   -DE/DX =    0.0                           !
 !       A10        67.8526   -DE/DX =    0.0                           !
 !       D1        -94.1096   -DE/DX =    0.0                           !
 !       D2         43.8485   -DE/DX =    0.0                           !
 !       D3       -185.441    -DE/DX =    0.0                           !
 !       D4       -157.7549   -DE/DX =    0.0                           !
 !       D5        -14.6745   -DE/DX =    0.0                           !
 !       D6         52.7957   -DE/DX =    0.0                           !
 !       D7        -69.1873   -DE/DX =    0.0                           !
 !       D8        169.9877   -DE/DX =    0.0                           !
 !       D9         93.7192   -DE/DX =    0.0                           !
 ------------------------------------------------------------------------
 GradGradGradGradGradGradGradGradGradGradGradGradGradGradGradGradGradGrad

 1\1\GINC-C51N09\Freq\RB3LYP\6-31++G(d,p)\C3H7O2(1-)\ROOT\06-Mar-2018\1
 \\#N Geom=AllCheck Guess=TCheck SCRF=Check GenChk RB3LYP/6-31++G(d,p) 
 Freq\\OH-BACK-MID\\-1,1\C\O,1,2.24654574\C,1,B1,2,A1\C,1,B2,3,A2,2,D1,
 0\H,2,B3,1,A3,3,D2,0\H,1,B4,3,A4,4,D3,0\H,3,B5,1,A5,4,D4,0\H,3,B6,1,A6
 ,4,D5,0\H,4,B7,1,A7,3,D6,0\H,4,B8,1,A8,3,D7,0\H,4,B9,1,A9,3,D8,0\O,3,B
 10,1,A10,4,D9,0\\B1=1.45008931\B2=1.50944137\B3=0.9701199\B4=1.0777119
 7\B5=1.09779656\B6=1.09747601\B7=1.09377214\B8=1.09641298\B9=1.0935771
 1\B10=1.41996144\A1=105.09177767\A2=122.44745294\A3=106.41447786\A4=11
 8.39943513\A5=119.30102586\A6=118.38925928\A7=109.91363275\A8=110.2832
 4593\A9=109.86379469\A10=67.85262821\D1=-94.1096261\D2=43.84847713\D3=
 -185.44104215\D4=-157.75491883\D5=-14.67452898\D6=52.79572869\D7=-69.1
 8733197\D8=169.9877238\D9=93.71916071\\Version=EM64L-G09RevB.01\HF=-26
 8.9478285\RMSD=2.214e-09\RMSF=4.698e-03\ZeroPoint=0.0942437\Thermal=0.
 1004444\Dipole=0.5157355,-0.2053319,-1.9222754\DipoleDeriv=0.2531374,0
 .1158015,-0.0491349,0.160423,0.2883592,-0.0886291,-0.4766197,-0.092271
 8,1.8295408,-0.7480507,0.2473898,0.0539864,0.2217388,-0.7782618,0.0300
 79,0.1192968,-0.0348038,-1.5863592,0.4237537,-0.0005,-0.0773817,-0.051
 1267,0.430427,0.0343653,0.3478117,0.0065727,0.2853557,0.0822093,-0.064
 4535,0.0361723,-0.0516844,-0.0036301,0.0556259,0.0244671,0.0238981,0.1
 172587,-0.0122641,-0.2610157,-0.1213754,-0.2361461,0.0041841,-0.118639
 5,-0.0210996,-0.0159256,0.186134,-0.0114334,0.0073315,0.0222494,0.0095
 645,-0.0810642,-0.0035604,0.0548649,0.0053654,-0.0194959,-0.150728,-0.
 1155688,-0.0575211,-0.1804028,-0.1624312,-0.0543576,-0.0970444,-0.0592
 356,0.0195948,-0.0962369,0.0842322,-0.0238165,0.1668907,-0.180721,-0.0
 018969,-0.0659571,0.02185,0.0425233,-0.0023867,0.094262,-0.0430055,0.0
 048126,-0.0560054,0.0845974,-0.0152803,0.1235415,0.0191641,0.0438535,-
 0.0348171,-0.0317328,-0.0531521,-0.0079335,-0.0803358,-0.0637645,-0.13
 57903,-0.1535653,-0.1633923,-0.0146741,0.0778456,0.048705,0.0300905,-0
 .0102975,0.116645,0.0107434,0.047413,-0.6184617,-0.0579878,0.2137143,-
 0.0396225,-0.4830137,0.1530492,0.0766802,0.146056,-1.7875641\Polar=63.
 4032325,0.8451897,59.5936576,-2.7596831,2.0377823,79.0917779\PG=C01 [X
 (C3H7O2)]\NImag=2\\0.61243870,-0.03875046,0.63168575,-0.13321343,0.078
 78742,0.08592631,-0.01237011,-0.00066724,0.00216514,0.24752899,0.00007
 223,-0.01045888,0.00576109,0.23710054,0.22952328,0.00599309,0.00501094
 ,0.01443957,0.09777533,0.09170539,0.08448731,-0.31914400,-0.00498520,0
 .12890621,0.00307184,0.00089044,-0.01054697,0.64559776,0.00535084,-0.0
 6553326,-0.01173969,0.00027629,-0.00160720,0.00046905,-0.00455561,0.59
 599891,0.05569993,-0.01117922,0.00301084,-0.00006395,-0.00016754,-0.00
 552605,0.03224126,0.03769739,0.28526810,-0.11561922,-0.06530846,0.0120
 6765,-0.00070527,-0.00172128,-0.00157931,-0.01532831,-0.02491232,0.005
 60470,0.54273008,-0.06402271,-0.18978931,0.00535435,-0.00142993,-0.002
 44253,-0.00287450,0.00085849,0.00363483,0.00217502,-0.03534669,0.50337
 042,0.00362051,0.00617241,-0.05228276,-0.00487115,-0.00697176,-0.01117
 364,0.00198061,-0.00330635,-0.00445453,-0.00638951,0.00236922,0.567266
 12,0.00014353,-0.00007881,0.00035354,-0.24371511,-0.23305179,-0.097740
 22,-0.00003179,-0.00001442,0.00024132,-0.00083647,0.00006811,0.0000291
 7,0.24360961,-0.00068128,-0.00069939,0.00087410,-0.23255881,-0.2235894
 0,-0.09337491,-0.00035528,-0.00012955,-0.00059482,0.00027598,-0.001496
 03,-0.00083035,0.23241988,0.22418105,-0.00432117,-0.00344255,0.0064171
 3,-0.09502045,-0.09096812,-0.04424529,0.00047501,-0.00097922,-0.001563
 62,0.00004484,-0.00025056,-0.00135730,0.09752947,0.09334391,0.04434437
 ,-0.10273717,0.11115476,0.03942000,0.00007703,-0.00105732,-0.00157278,
 -0.01003849,0.02443697,0.00949823,0.00664782,-0.01476819,-0.00265544,-
 0.00061073,0.00045178,-0.00118463,0.10949416,0.11540916,-0.29304789,-0
 .07587971,-0.00023772,0.00256283,0.00095025,-0.00334461,0.00174236,0.0
 0280014,0.00866511,-0.01417358,-0.00420839,-0.00025028,-0.00002218,0.0
 0065060,-0.11348474,0.29728278,0.02966447,-0.07155136,-0.03008901,-0.0
 0119236,0.00200700,-0.01329580,-0.00087365,0.00730064,-0.00308445,-0.0
 0032719,0.00148191,0.00380220,-0.00093467,0.00070970,-0.00158601,-0.04
 389627,0.07481704,0.06331647,-0.01012060,-0.01945233,-0.01059767,0.000
 88349,0.00050622,0.00101048,-0.12027771,-0.10720319,-0.02513188,-0.001
 57518,0.00120376,-0.00161143,0.00017023,0.00031939,0.00084764,0.000993
 39,-0.00001624,0.00069810,0.13791224,0.00329999,-0.00074476,-0.0023765
 3,0.00049048,0.00020431,0.00072967,-0.10693423,-0.21852727,-0.04091576
 ,-0.00002341,0.00021122,0.00082004,0.00004155,0.00047306,0.00044546,-0
 .00011002,0.00082333,-0.00044235,0.11868150,0.22411461,0.00551337,0.01
 845481,0.00023347,-0.00044288,-0.00024726,0.00117839,-0.02498278,-0.04
 325408,-0.05370883,0.00295712,-0.00141337,0.00055994,0.00006575,-0.000
 00611,-0.00048208,-0.00121203,-0.00064383,-0.00005312,0.04237376,0.049
 87769,0.05786982,-0.01039621,0.02302604,-0.00489541,0.00059589,-0.0008
 1702,0.00157370,-0.10370299,0.10003493,0.00323347,0.00186103,0.0009869
 7,-0.00015130,-0.00008997,0.00012302,0.00008560,-0.00208249,-0.0004352
 3,-0.00173429,0.00891150,-0.01500186,0.00072534,0.11928845,-0.00255181
 ,0.00105353,0.00328250,-0.00049616,0.00086664,-0.00101340,0.10013303,-
 0.24726098,-0.00618569,-0.00050676,0.00059574,0.00044159,0.00015201,-0
 .00019690,0.00030163,-0.00076370,0.00045259,0.00032850,0.01152672,-0.0
 2029017,-0.00170517,-0.11617791,0.25992480,0.00584114,-0.01817052,-0.0
 0366042,-0.00038602,0.00066680,0.00025573,0.00316903,-0.00449918,-0.04
 329959,-0.00138587,-0.00001093,0.00059231,0.00010647,-0.00011805,0.000
 16944,0.00305086,0.00024754,0.00126191,0.00410951,-0.00496170,0.003304
 55,0.00917217,-0.00157447,0.04370133,0.00838413,-0.01221176,0.00892457
 ,-0.00100392,-0.00009830,0.00048244,0.00227514,-0.00055506,0.00033816,
 -0.10656039,0.08421358,-0.07674748,-0.00014028,-0.00063078,-0.00003965
 ,-0.00046974,-0.00166049,-0.00041477,0.00001149,-0.00012338,-0.0002050
 6,0.00006747,0.00055302,-0.00029155,0.11575643,0.01228532,-0.02162957,
 0.01508759,-0.00066624,0.00103737,-0.00061947,0.00201385,0.00209651,-0
 .00037984,0.08260776,-0.15115572,0.10280707,0.00021955,0.00099775,0.00
 016911,-0.00223657,-0.00235556,0.00094337,-0.00000368,0.00020977,-0.00
 028884,-0.00093502,0.00050662,0.00039854,-0.08746319,0.16661583,-0.000
 52362,0.00194490,-0.00107951,-0.00077157,-0.00102379,-0.00066813,-0.00
 091269,0.00049756,0.00009236,-0.07769462,0.10529330,-0.14111086,0.0001
 8130,0.00001394,-0.00041705,-0.00011025,-0.00068972,-0.00060467,0.0003
 7324,-0.00031547,0.00012852,0.00066336,-0.00017074,-0.00001050,0.08416
 829,-0.11514926,0.15015990,-0.00427464,-0.00630020,-0.01438628,-0.0003
 0991,-0.00103510,-0.00100953,0.00047283,-0.00095953,-0.00150574,-0.053
 98315,-0.01253509,-0.03224605,0.00063018,-0.00040612,-0.00048915,-0.00
 069549,-0.00060655,0.00001334,-0.00049313,0.00017515,0.00027781,-0.000
 24328,0.00013141,0.00000622,-0.00201095,-0.00784840,-0.01364875,0.0525
 9713,-0.00383899,-0.01259243,-0.02307800,-0.00112383,-0.00045544,-0.00
 055931,0.00014768,-0.00108051,-0.00195978,-0.01298117,-0.08809684,-0.0
 9122192,0.00010638,0.00045493,-0.00061442,-0.00164432,-0.00208300,0.00
 040128,-0.00042131,0.00012938,0.00043380,-0.00003307,0.00012824,0.0001
 5566,0.00087642,0.01002197,0.01808612,0.01764575,0.09496587,0.00198032
 ,0.00276879,-0.00046991,-0.00162032,-0.00172730,-0.00011611,0.00035251
 ,-0.00015942,-0.00037103,-0.03364505,-0.09445256,-0.25762127,0.0000883
 7,-0.00057523,-0.00079202,-0.00045035,0.00023694,-0.00034300,0.0002697
 9,-0.00008940,0.00018140,-0.00017456,-0.00007634,-0.00009551,-0.000956
 27,-0.00757483,-0.01463838,0.03578230,0.10307974,0.28217614,-0.0157722
 0,0.00638022,0.00761258,0.00123040,0.00017372,-0.00079551,-0.00047179,
 -0.00307456,0.00008282,-0.25329865,0.04748973,0.09930925,0.00077697,0.
 00033260,0.00023086,0.00109138,-0.00012218,-0.00001662,-0.00051789,-0.
 00034356,0.00068627,0.00037127,-0.00002978,-0.00034316,-0.01395441,0.0
 0354687,0.00681999,0.00660475,-0.00107930,-0.00221946,0.27462611,-0.02
 598640,0.00631640,0.01112740,0.00024568,-0.00020835,0.00005960,-0.0018
 3105,-0.00352906,0.00061293,0.05227664,-0.05726064,-0.02510466,0.00008
 870,-0.00016727,0.00025048,0.00016996,0.00086191,0.00036639,-0.0005841
 9,-0.00003790,0.00064599,-0.00015602,0.00009970,-0.00022416,0.01842907
 ,-0.00445574,-0.00954179,0.01114294,-0.00356169,-0.00368864,-0.0523247
 9,0.06321449,0.00144810,-0.00165417,-0.00141328,-0.00005995,-0.0003909
 6,-0.00017963,-0.00143522,-0.00009967,-0.00066714,0.10167234,-0.023294
 74,-0.09254706,0.00023562,0.00034544,-0.00004178,-0.00015486,-0.000033
 74,0.00022544,-0.00014448,-0.00021722,0.00022949,0.00012981,-0.0001917
 1,-0.00008603,-0.01785706,0.00386694,0.00866813,0.02589465,-0.00544446
 ,-0.01009809,-0.11144961,0.02490823,0.09658624,-0.03053221,0.00719344,
 -0.03635690,0.00471666,-0.00096234,0.00640928,-0.08242250,0.01117564,-
 0.08023832,-0.00333229,-0.00671803,0.01973280,0.00009381,0.00070961,0.
 00184162,-0.00166966,-0.00391624,0.01901392,-0.01589783,-0.00015221,-0
 .02575666,-0.01458066,0.00802993,-0.02304879,-0.00235497,-0.00152025,0
 .00145531,0.00170566,0.00234576,0.00059273,-0.00068594,-0.00147055,0.0
 0172065,0.14495992,-0.00058590,-0.04456019,-0.00720053,-0.00093306,0.0
 0456737,-0.00048330,0.01796250,-0.06580478,0.01809719,-0.00302541,-0.0
 0339754,0.01903310,0.00029912,0.00019394,0.00109369,-0.00214861,0.0079
 5639,-0.01636211,-0.00455665,0.01343441,-0.02185363,0.00938516,0.00412
 020,0.02809048,-0.00132913,-0.00188923,0.00105496,0.00059572,0.0021695
 1,0.00225826,-0.00094898,-0.00127183,0.00220606,-0.01471477,0.08448176
 ,0.02829729,-0.00714143,-0.02103243,0.00448818,0.00135647,-0.02515636,
 -0.12837332,0.01807296,-0.17569605,-0.00132510,0.00562287,-0.01167316,
 -0.00015611,0.00021239,-0.00044580,-0.00073247,0.00175288,-0.01954997,
 -0.01219705,-0.00255443,-0.00944154,-0.00862789,0.00656329,-0.00213323
 ,0.00259837,0.00073961,-0.00051983,0.00131117,0.00072131,0.00218777,0.
 00008260,0.00058824,-0.00067628,0.11463434,-0.02593416,0.26413688\\0.0
 0017178,0.00021271,0.01727413,-0.00017160,-0.00029016,-0.02227395,-0.0
 0000044,0.00007687,-0.00000001,0.00000012,0.00000022,0.00000035,0.0000
 0016,-0.00000016,-0.00000049,-0.00000015,-0.00000004,0.00000002,0.0000
 0013,0.00000008,-0.00000005,0.00000005,0.00000003,0.,0.,0.00000012,0.0
 0000011,-0.00000005,0.00000006,0.00000019,-0.00000007,-0.00000003,0.,0
 .00000008,0.00000029,-0.00000030\\\@


 Just remember, when you're over the hill, you begin to pick up speed.
 -- Charles Schulz
 Job cpu time:  0 days  0 hours  6 minutes 43.4 seconds.
 File lengths (MBytes):  RWF=   1280 Int=      0 D2E=      0 Chk=     32 Scr=     32
 Normal termination of Gaussian 09 at Tue Mar  6 17:10:16 2018.
