 Entering Gaussian System, Link 0=g09
 Input=OH-term-field-2.gjf
 Output=OH-term-field-2.log
 Initial command:
 /share/home/zxchen/g09/l1.exe /scratch/zxchen/Gau-5217.inp -scrdir=/scratch/zxchen/
 Entering Link 1 = /share/home/zxchen/g09/l1.exe PID=      5218.
  
 Copyright (c) 1988,1990,1992,1993,1995,1998,2003,2009,2010,
            Gaussian, Inc.  All Rights Reserved.
  
 This is part of the Gaussian(R) 09 program.  It is based on
 the Gaussian(R) 03 system (copyright 2003, Gaussian, Inc.),
 the Gaussian(R) 98 system (copyright 1998, Gaussian, Inc.),
 the Gaussian(R) 94 system (copyright 1995, Gaussian, Inc.),
 the Gaussian 92(TM) system (copyright 1992, Gaussian, Inc.),
 the Gaussian 90(TM) system (copyright 1990, Gaussian, Inc.),
 the Gaussian 88(TM) system (copyright 1988, Gaussian, Inc.),
 the Gaussian 86(TM) system (copyright 1986, Carnegie Mellon
 University), and the Gaussian 82(TM) system (copyright 1983,
 Carnegie Mellon University). Gaussian is a federally registered
 trademark of Gaussian, Inc.
  
 This software contains proprietary and confidential information,
 including trade secrets, belonging to Gaussian, Inc.
  
 This software is provided under written license and may be
 used, copied, transmitted, or stored only in accord with that
 written license.
  
 The following legend is applicable only to US Government
 contracts under FAR:
  
                    RESTRICTED RIGHTS LEGEND
  
 Use, reproduction and disclosure by the US Government is
 subject to restrictions as set forth in subparagraphs (a)
 and (c) of the Commercial Computer Software - Restricted
 Rights clause in FAR 52.227-19.
  
 Gaussian, Inc.
 340 Quinnipiac St., Bldg. 40, Wallingford CT 06492
  
  
 ---------------------------------------------------------------
 Warning -- This program may not be used in any manner that
 competes with the business of Gaussian, Inc. or will provide
 assistance to any competitor of Gaussian, Inc.  The licensee
 of this program is prohibited from giving any competitor of
 Gaussian, Inc. access to this program.  By using this program,
 the user acknowledges that Gaussian, Inc. is engaged in the
 business of creating and licensing software in the field of
 computational chemistry and represents and warrants to the
 licensee that it is not a competitor of Gaussian, Inc. and that
 it will not use this program in any manner prohibited above.
 ---------------------------------------------------------------
  

 Cite this work as:
 Gaussian 09, Revision B.01,
 M. J. Frisch, G. W. Trucks, H. B. Schlegel, G. E. Scuseria, 
 M. A. Robb, J. R. Cheeseman, G. Scalmani, V. Barone, B. Mennucci, 
 G. A. Petersson, H. Nakatsuji, M. Caricato, X. Li, H. P. Hratchian, 
 A. F. Izmaylov, J. Bloino, G. Zheng, J. L. Sonnenberg, M. Hada, 
 M. Ehara, K. Toyota, R. Fukuda, J. Hasegawa, M. Ishida, T. Nakajima, 
 Y. Honda, O. Kitao, H. Nakai, T. Vreven, J. A. Montgomery, Jr., 
 J. E. Peralta, F. Ogliaro, M. Bearpark, J. J. Heyd, E. Brothers, 
 K. N. Kudin, V. N. Staroverov, T. Keith, R. Kobayashi, J. Normand, 
 K. Raghavachari, A. Rendell, J. C. Burant, S. S. Iyengar, J. Tomasi, 
 M. Cossi, N. Rega, J. M. Millam, M. Klene, J. E. Knox, J. B. Cross, 
 V. Bakken, C. Adamo, J. Jaramillo, R. Gomperts, R. E. Stratmann, 
 O. Yazyev, A. J. Austin, R. Cammi, C. Pomelli, J. W. Ochterski, 
 R. L. Martin, K. Morokuma, V. G. Zakrzewski, G. A. Voth, 
 P. Salvador, J. J. Dannenberg, S. Dapprich, A. D. Daniels, 
 O. Farkas, J. B. Foresman, J. V. Ortiz, J. Cioslowski, 
 and D. J. Fox, Gaussian, Inc., Wallingford CT, 2010.
 
 ******************************************
 Gaussian 09:  EM64L-G09RevB.01 12-Aug-2010
                13-Mar-2018 
 ******************************************
 %chk=OH-term-field-2.chk
 %nprocshared=24
 Will use up to   24 processors via shared memory.
 ----------------------------------------------------------------------
 # field=z+50 nosymm opt=(ts,noeigen,maxcycle=300,z-matrix,calcall) fre
 q rb3lyp/6-31++g(d,p)
 ----------------------------------------------------------------------
 1/5=1,6=300,10=4,11=1,14=-1,18=40,26=3,38=1/1,3;
 2/12=2,15=1,17=6,18=5,29=3,40=1/2;
 3/5=1,6=6,7=1111,11=2,14=3,15=50,16=1,25=1,30=1,71=2,74=-5,116=1/1,2,3;
 4//1;
 5/5=2,38=5/2;
 8/6=4,10=90,11=11/1;
 11/6=1,8=1,9=11,15=111,16=1,31=1/1,2,10;
 10/6=1,31=1/2;
 6/7=2,8=2,9=2,10=2,18=1,28=1/1;
 7/10=1,25=1,30=1/1,2,3,16;
 1/5=1,6=300,10=4,11=1,14=-1,18=40/3(3);
 2/15=1,29=3/2;
 7/8=1,9=1,25=1,30=1,44=-1/16;
 99//99;
 2/15=1,29=3/2;
 3/5=1,6=6,7=1111,11=2,14=3,15=50,16=1,25=1,30=1,71=2,74=-5,116=1/1,2,3;
 4/5=5,16=3/1;
 5/5=2,38=5/2;
 8/6=4,10=90,11=11/1;
 11/6=1,8=1,9=11,15=111,16=1,31=1/1,2,10;
 10/6=1,31=1/2;
 7/10=1,25=1,30=1/1,2,3,16;
 1/5=1,6=300,10=4,11=1,14=-1,18=40/3(-8);
 2/15=1,29=3/2;
 6/7=2,8=2,9=2,10=2,18=1,19=2,28=1/1;
 7/8=1,9=1,25=1,30=1,44=-1/16;
 99//99;
 ------------
 OH-BACK-TERM
 ------------
 Symbolic Z-matrix:
 Charge = -1 Multiplicity = 1
 C
 O                    1    B1
 H                    1    B2       2    A1
 H                    2    B3       1    A2       3    D1       0
 H                    1    B4       2    A3       4    D2       0
 H                    1    B5       2    A4       4    D3       0
 H                    1    B6       2    A5       4    D4       0
 H                    1    B7       2    A6       4    D5       0
 H                    1    B8       2    A7       4    D6       0
 C                    1    B9       2    A8       4    D7       0
 C                    1    B10      2    A9       10   D8       0
 O                    11   B11      1    A10      2    D9       0
       Variables:
  B1                    2.20872                  
  B2                    1.07694                  
  B3                    0.96917                  
  B4                    1.07629                  
  B5                    2.16943                  
  B6                    3.45641                  
  B7                    3.03641                  
  B8                    2.73679                  
  B9                    2.5744                   
  B10                   1.45464                  
  B11                   1.40182                  
  A1                   84.99598                  
  A2                  102.63955                  
  A3                   82.16549                  
  A4                  101.04382                  
  A5                  110.44636                  
  A6                   79.45263                  
  A7                  101.1449                   
  A8                   99.51831                  
  A9                  113.33139                  
  A10                  76.53696                  
  D1                  -87.22787                  
  D2                  151.88884                  
  D3                   58.43876                  
  D4                   10.24062                  
  D5                    8.16716                  
  D6                  -20.13842                  
  D7                    3.762                    
  D8                   28.95485                  
  D9                  178.9772                   
 

 GradGradGradGradGradGradGradGradGradGradGradGradGradGradGradGradGradGrad
 Berny optimization.
 Initialization pass.
                       ----------------------------
                       !    Initial Parameters    !
                       ! (Angstroms and Degrees)  !
 ----------------------                            ----------------------
 !      Name          Value   Derivative information (Atomic Units)     !
 ------------------------------------------------------------------------
 !       B1          2.2087   calculate D2E/DX2 analytically            !
 !       B2          1.0769   calculate D2E/DX2 analytically            !
 !       B3          0.9692   calculate D2E/DX2 analytically            !
 !       B4          1.0763   calculate D2E/DX2 analytically            !
 !       B5          2.1694   calculate D2E/DX2 analytically            !
 !       B6          3.4564   calculate D2E/DX2 analytically            !
 !       B7          3.0364   calculate D2E/DX2 analytically            !
 !       B8          2.7368   calculate D2E/DX2 analytically            !
 !       B9          2.5744   calculate D2E/DX2 analytically            !
 !       B10         1.4546   calculate D2E/DX2 analytically            !
 !       B11         1.4018   calculate D2E/DX2 analytically            !
 !       A1         84.996    calculate D2E/DX2 analytically            !
 !       A2        102.6395   calculate D2E/DX2 analytically            !
 !       A3         82.1655   calculate D2E/DX2 analytically            !
 !       A4        101.0438   calculate D2E/DX2 analytically            !
 !       A5        110.4464   calculate D2E/DX2 analytically            !
 !       A6         79.4526   calculate D2E/DX2 analytically            !
 !       A7        101.1449   calculate D2E/DX2 analytically            !
 !       A8         99.5183   calculate D2E/DX2 analytically            !
 !       A9        113.3314   calculate D2E/DX2 analytically            !
 !       A10        76.537    calculate D2E/DX2 analytically            !
 !       D1        -87.2279   calculate D2E/DX2 analytically            !
 !       D2        151.8888   calculate D2E/DX2 analytically            !
 !       D3         58.4388   calculate D2E/DX2 analytically            !
 !       D4         10.2406   calculate D2E/DX2 analytically            !
 !       D5          8.1672   calculate D2E/DX2 analytically            !
 !       D6        -20.1384   calculate D2E/DX2 analytically            !
 !       D7          3.762    calculate D2E/DX2 analytically            !
 !       D8         28.9548   calculate D2E/DX2 analytically            !
 !       D9        178.9772   calculate D2E/DX2 analytically            !
 ------------------------------------------------------------------------
 Trust Radius=3.00D-01 FncErr=1.00D-07 GrdErr=1.00D-06
 Number of steps in this run=    100 maximum allowed number of steps=    100.
 Search for a saddle point of order  1.
 GradGradGradGradGradGradGradGradGradGradGradGradGradGradGradGradGradGrad

 ---------------------------------------------------------------------------------------------------
                            Z-MATRIX (ANGSTROMS AND DEGREES)
   CD    Cent   Atom    N1       Length/X        N2       Alpha/Y        N3        Beta/Z          J
 ---------------------------------------------------------------------------------------------------
      1      1  C 
      2      2  O        1   2.208719(     1)
      3      3  H        1   1.076943(     2)      2   84.996(    12)
      4      4  H        2   0.969172(     3)      1  102.640(    13)      3  -87.228(    22)      0
      5      5  H        1   1.076293(     4)      2   82.165(    14)      4  151.889(    23)      0
      6      6  H        1   2.169427(     5)      2  101.044(    15)      4   58.439(    24)      0
      7      7  H        1   3.456413(     6)      2  110.446(    16)      4   10.241(    25)      0
      8      8  H        1   3.036406(     7)      2   79.453(    17)      4    8.167(    26)      0
      9      9  H        1   2.736792(     8)      2  101.145(    18)      4  -20.138(    27)      0
     10     10  C        1   2.574399(     9)      2   99.518(    19)      4    3.762(    28)      0
     11     11  C        1   1.454637(    10)      2  113.331(    20)     10   28.955(    29)      0
     12     12  O       11   1.401821(    11)      1   76.537(    21)      2  178.977(    30)      0
 ---------------------------------------------------------------------------------------------------
                         Z-Matrix orientation:                         
 ---------------------------------------------------------------------
 Center     Atomic      Atomic             Coordinates (Angstroms)
 Number     Number       Type             X           Y           Z
 ---------------------------------------------------------------------
      1          6           0        0.000000    0.000000    0.000000
      2          8           0        0.000000    0.000000    2.208719
      3          1           0        1.072838    0.000000    0.093937
      4          1           0        0.045737   -0.944578    2.420790
      5          1           0       -0.547295    0.915069    0.146712
      6          1           0       -1.758272   -1.200913   -0.415575
      7          1           0       -0.420964   -3.211183   -1.207430
      8          1           0       -0.280665   -2.971879    0.555809
      9          1           0        1.045323   -2.473356   -0.528997
     10          6           0       -0.043862   -2.538578   -0.425710
     11          6           0       -0.666729   -1.157386   -0.576107
     12          8           0       -0.268753   -0.417781   -1.698471
 ---------------------------------------------------------------------
                    Distance matrix (angstroms):
                    1          2          3          4          5
     1  C    0.000000
     2  O    2.208719   0.000000
     3  H    1.076943   2.371347   0.000000
     4  H    2.598950   0.969172   2.713192   0.000000
     5  H    1.076293   2.321369   1.861442   2.996899   0.000000
     6  H    2.169427   3.379442   3.117207   3.371220   2.502002
     7  H    3.456413   4.707333   3.773155   4.303404   4.344608
     8  H    3.036406   3.412177   3.298084   2.773922   3.917501
     9  H    2.736792   3.834746   2.550744   3.469521   3.804529
    10  C    2.574399   3.658759   2.821601   3.263652   3.536777
    11  C    1.454637   3.088580   2.194218   3.087764   2.198136
    12  O    1.769625   3.938642   2.277528   4.164700   2.293202
                    6          7          8          9         10
     6  H    0.000000
     7  H    2.540987   0.000000
     8  H    2.502645   1.784926   0.000000
     9  H    3.080929   1.776136   1.784257   0.000000
    10  C    2.174546   1.098039   1.098729   1.096014   0.000000
    11  C    1.104143   2.162649   2.173169   2.159889   1.522588
    12  O    2.116078   2.840314   3.406661   2.705523   2.483602
                   11         12
    11  C    0.000000
    12  O    1.401821   0.000000
 Symmetry turned off by external request.
 Stoichiometry    C3H7O2(1-)
 Framework group  C1[X(C3H7O2)]
 Deg. of freedom    30
 Full point group                 C1      NOp   1
 Rotational constants (GHZ):      7.1353678      3.1274749      2.3522962
 Standard basis: 6-31++G(d,p) (6D, 7F)
 The following finite field(s) will be applied:
 An electric field of              0.0000  0.0000  0.0050
 Integral buffers will be    131072 words long.
 Raffenetti 2 integral format.
 Two-electron integral symmetry is turned off.
   137 basis functions,   216 primitive gaussians,   137 cartesian basis functions
    21 alpha electrons       21 beta electrons
       nuclear repulsion energy       174.5508764713 Hartrees.
 NAtoms=   12 NActive=   12 NUniq=   12 SFac= 1.00D+00 NAtFMM=   50 NAOKFM=F Big=F
 One-electron integrals computed using PRISM.
 PrsmSu:  requested number of processors reduced to:  10 ShMem   1 Linda.
 NBasis=   137 RedAO= T  NBF=   137
 NBsUse=   137 1.00D-06 NBFU=   137
 The nuclear repulsion energy is now       174.5427159540 hartrees.
 Harris functional with IExCor=  402 diagonalized for initial guess.
 ExpMin= 3.60D-02 ExpMax= 5.48D+03 ExpMxC= 8.25D+02 IAcc=3 IRadAn=         0 AccDes= 0.00D+00
 HarFok:  IExCor=  402 AccDes= 0.00D+00 IRadAn=         0 IDoV= 1
 ScaDFX=  1.000000  1.000000  1.000000  1.000000
 FoFCou: FMM=F IPFlag=           0 FMFlag=      100000 FMFlg1=           0
         NFxFlg=           0 DoJE=T BraDBF=F KetDBF=T FulRan=T
         Omega=  0.000000  0.000000  1.000000  0.000000  0.000000 ICntrl=     500 IOpCl=  0
         NMat0=    1 NMatS0=    1 NMatT0=    0 NMatD0=    1 NMtDS0=    0 NMtDT0=    0
         I1Cent=           4 NGrid=           0.
 Symmetry not used in FoFCou.
 Requested convergence on RMS density matrix=1.00D-08 within 128 cycles.
 Requested convergence on MAX density matrix=1.00D-06.
 Requested convergence on             energy=1.00D-06.
 No special actions if energy rises.
 SCF Done:  E(RB3LYP) =  -268.951234455     A.U. after   15 cycles
             Convg  =    0.5438D-08             -V/T =  2.0095
 Range of M.O.s used for correlation:     1   137
 NBasis=   137 NAE=    21 NBE=    21 NFC=     0 NFV=     0
 NROrb=    137 NOA=    21 NOB=    21 NVA=   116 NVB=   116

 **** Warning!!: The largest alpha MO coefficient is  0.29288173D+02

 PrsmSu:  requested number of processors reduced to:  10 ShMem   1 Linda.
 PrsmSu:  requested number of processors reduced to:  18 ShMem   1 Linda.
 Symmetrizing basis deriv contribution to polar:
 IMax=3 JMax=2 DiffMx= 0.00D+00
 G2DrvN: will do     4 centers at a time, making    4 passes doing MaxLOS=2.
 Estimated number of processors is:   15
 Calling FoFCou, ICntrl=  3107 FMM=F I1Cent=   0 AccDes= 0.00D+00.
 CoulSu:  requested number of processors reduced to:  15 ShMem   1 Linda.
 Calling FoFCou, ICntrl=  3107 FMM=F I1Cent=   0 AccDes= 0.00D+00.
 CoulSu:  requested number of processors reduced to:  15 ShMem   1 Linda.
 Calling FoFCou, ICntrl=  3107 FMM=F I1Cent=   0 AccDes= 0.00D+00.
 CoulSu:  requested number of processors reduced to:  15 ShMem   1 Linda.
 Calling FoFCou, ICntrl=  3107 FMM=F I1Cent=   0 AccDes= 0.00D+00.
 CoulSu:  requested number of processors reduced to:  15 ShMem   1 Linda.
 FoFDir/FoFCou used for L=0 through L=2.
 End of G2Drv Frequency-dependent properties file   721 does not exist.
 End of G2Drv Frequency-dependent properties file   722 does not exist.
          IDoAtm=111111111111
          Differentiating once with respect to electric field.
                with respect to dipole field.
          Differentiating once with respect to nuclear coordinates.
 PrRfSu:  requested number of processors reduced to:  15 ShMem   1 Linda.
 CalDSu:  requested number of processors reduced to:  19 ShMem   1 Linda.
          There are    39 degrees of freedom in the 1st order CPHF.  IDoFFX=5.
     36 vectors produced by pass  0 Test12= 6.25D-15 2.56D-09 XBig12= 1.21D+02 5.77D+00.
 AX will form    36 AO Fock derivatives at one time.
 PrRfSu:  requested number of processors reduced to:  15 ShMem   1 Linda.
 CalDSu:  requested number of processors reduced to:  20 ShMem   1 Linda.
     36 vectors produced by pass  1 Test12= 6.25D-15 2.56D-09 XBig12= 6.57D+01 2.59D+00.
 PrRfSu:  requested number of processors reduced to:  15 ShMem   1 Linda.
 CalDSu:  requested number of processors reduced to:  20 ShMem   1 Linda.
     36 vectors produced by pass  2 Test12= 6.25D-15 2.56D-09 XBig12= 4.91D-01 9.94D-02.
 PrRfSu:  requested number of processors reduced to:  15 ShMem   1 Linda.
 CalDSu:  requested number of processors reduced to:  20 ShMem   1 Linda.
     36 vectors produced by pass  3 Test12= 6.25D-15 2.56D-09 XBig12= 1.90D-03 5.56D-03.
 PrRfSu:  requested number of processors reduced to:  15 ShMem   1 Linda.
 CalDSu:  requested number of processors reduced to:  20 ShMem   1 Linda.
     36 vectors produced by pass  4 Test12= 6.25D-15 2.56D-09 XBig12= 4.94D-06 2.97D-04.
 PrRfSu:  requested number of processors reduced to:  15 ShMem   1 Linda.
 CalDSu:  requested number of processors reduced to:  20 ShMem   1 Linda.
     34 vectors produced by pass  5 Test12= 6.25D-15 2.56D-09 XBig12= 6.53D-09 9.60D-06.
 PrRfSu:  requested number of processors reduced to:  16 ShMem   1 Linda.
 CalDSu:  requested number of processors reduced to:  20 ShMem   1 Linda.
      4 vectors produced by pass  6 Test12= 6.25D-15 2.56D-09 XBig12= 4.90D-12 3.47D-07.
      3 vectors produced by pass  7 Test12= 6.25D-15 2.56D-09 XBig12= 3.65D-14 3.80D-08.
      1 vectors produced by pass  8 Test12= 6.25D-15 2.56D-09 XBig12= 2.25D-16 3.65D-09.
 Inverted reduced A of dimension   222 with in-core refinement.
 Isotropic polarizability for W=    0.000000       71.16 Bohr**3.
 End of Minotr Frequency-dependent properties file   721 does not exist.
 End of Minotr Frequency-dependent properties file   722 does not exist.

 **********************************************************************

            Population analysis using the SCF density.

 **********************************************************************

 Alpha  occ. eigenvalues --  -18.94685 -18.88721 -10.07187 -10.06620 -10.03911
 Alpha  occ. eigenvalues --   -0.82015  -0.68752  -0.58540  -0.50897  -0.41311
 Alpha  occ. eigenvalues --   -0.32449  -0.28536  -0.27150  -0.24006  -0.20726
 Alpha  occ. eigenvalues --   -0.18508  -0.17365  -0.12204  -0.07356  -0.03908
 Alpha  occ. eigenvalues --   -0.03111
 Alpha virt. eigenvalues --    0.10092   0.12568   0.12989   0.13761   0.15442
 Alpha virt. eigenvalues --    0.16058   0.16926   0.18941   0.20884   0.21352
 Alpha virt. eigenvalues --    0.23808   0.24246   0.24548   0.25058   0.26181
 Alpha virt. eigenvalues --    0.26647   0.27670   0.28670   0.29821   0.30214
 Alpha virt. eigenvalues --    0.33332   0.34399   0.37714   0.37924   0.38850
 Alpha virt. eigenvalues --    0.39446   0.40475   0.41439   0.43797   0.45601
 Alpha virt. eigenvalues --    0.47362   0.47650   0.49118   0.50393   0.52880
 Alpha virt. eigenvalues --    0.53394   0.56251   0.57934   0.78579   0.81993
 Alpha virt. eigenvalues --    0.84339   0.88590   0.91278   0.91839   0.94673
 Alpha virt. eigenvalues --    1.02805   1.05598   1.10546   1.11716   1.15434
 Alpha virt. eigenvalues --    1.19124   1.21593   1.25209   1.27212   1.28945
 Alpha virt. eigenvalues --    1.33404   1.40142   1.44237   1.45060   1.47104
 Alpha virt. eigenvalues --    1.50223   1.53016   1.58976   1.59818   1.62560
 Alpha virt. eigenvalues --    1.71579   1.78010   1.82597   1.84411   1.86694
 Alpha virt. eigenvalues --    1.89390   1.92285   1.99836   2.03008   2.05072
 Alpha virt. eigenvalues --    2.11084   2.12430   2.13941   2.18341   2.22787
 Alpha virt. eigenvalues --    2.24650   2.26612   2.29496   2.32167   2.37271
 Alpha virt. eigenvalues --    2.42833   2.47993   2.53801   2.57048   2.67250
 Alpha virt. eigenvalues --    2.73233   2.77283   2.78690   2.80473   2.85382
 Alpha virt. eigenvalues --    2.86387   2.89667   2.91937   2.94213   2.97056
 Alpha virt. eigenvalues --    3.01699   3.02389   3.14897   3.22565   3.38603
 Alpha virt. eigenvalues --    3.49697   3.59298   3.62076   3.64615   3.69323
 Alpha virt. eigenvalues --    3.72323   4.38685   4.43358   4.56506   4.67013
 Alpha virt. eigenvalues --    4.82993
          Condensed to atoms (all electrons):
              1          2          3          4          5          6
     1  C    5.554613  -0.026335   0.465508  -0.005416   0.406282   0.014457
     2  O   -0.026335   8.868379  -0.019354   0.138186  -0.018004  -0.000363
     3  H    0.465508  -0.019354   0.575983  -0.000595  -0.051786   0.013645
     4  H   -0.005416   0.138186  -0.000595   0.657741  -0.005265   0.003255
     5  H    0.406282  -0.018004  -0.051786  -0.005265   0.533117  -0.025201
     6  H    0.014457  -0.000363   0.013645   0.003255  -0.025201   0.813908
     7  H    0.000922   0.005255   0.001050  -0.001201  -0.000800  -0.021701
     8  H   -0.003852   0.011167  -0.005211  -0.011463   0.001753   0.022963
     9  H    0.005408  -0.016702   0.007931   0.007611  -0.001129   0.022227
    10  C    0.390073   0.110678   0.001854  -0.044583   0.008914  -0.228160
    11  C   -0.671219  -0.147698  -0.123730   0.066604   0.008025   0.379975
    12  O    0.050789   0.032129  -0.028976  -0.011318  -0.026175  -0.056625
              7          8          9         10         11         12
     1  C    0.000922  -0.003852   0.005408   0.390073  -0.671219   0.050789
     2  O    0.005255   0.011167  -0.016702   0.110678  -0.147698   0.032129
     3  H    0.001050  -0.005211   0.007931   0.001854  -0.123730  -0.028976
     4  H   -0.001201  -0.011463   0.007611  -0.044583   0.066604  -0.011318
     5  H   -0.000800   0.001753  -0.001129   0.008914   0.008025  -0.026175
     6  H   -0.021701   0.022963   0.022227  -0.228160   0.379975  -0.056625
     7  H    0.578969  -0.054305  -0.034365   0.435698  -0.050743  -0.011613
     8  H   -0.054305   0.663106  -0.020435   0.339603  -0.055685   0.019292
     9  H   -0.034365  -0.020435   0.554229   0.321219  -0.003660   0.010578
    10  C    0.435698   0.339603   0.321219   6.801787  -1.536092  -0.075347
    11  C   -0.050743  -0.055685  -0.003660  -1.536092   7.936925   0.033862
    12  O   -0.011613   0.019292   0.010578  -0.075347   0.033862   8.577629
 Mulliken atomic charges:
              1
     1  C   -0.181231
     2  O   -0.937338
     3  H    0.163682
     4  H    0.206443
     5  H    0.170271
     6  H    0.061619
     7  H    0.152835
     8  H    0.093067
     9  H    0.147088
    10  C   -0.525644
    11  C    0.163435
    12  O   -0.514225
 Sum of Mulliken atomic charges =  -1.00000
 Mulliken charges with hydrogens summed into heavy atoms:
              1
     1  C    0.152721
     2  O   -0.730895
    10  C   -0.132655
    11  C    0.225054
    12  O   -0.514225
 Sum of Mulliken charges with hydrogens summed into heavy atoms =  -1.00000
 APT atomic charges:
              1
     1  C    0.877412
     2  O   -1.062470
     3  H   -0.015400
     4  H    0.061656
     5  H   -0.016033
     6  H   -0.128535
     7  H   -0.046799
     8  H   -0.057427
     9  H   -0.029415
    10  C    0.053723
    11  C    0.449380
    12  O   -1.086091
 Sum of APT charges=  -1.00000
 APT Atomic charges with hydrogens summed into heavy atoms:
              1
     1  C    0.845979
     2  O   -1.000814
     3  H    0.000000
     4  H    0.000000
     5  H    0.000000
     6  H    0.000000
     7  H    0.000000
     8  H    0.000000
     9  H    0.000000
    10  C   -0.079918
    11  C    0.320845
    12  O   -1.086091
 Sum of APT charges=  -1.00000
 Electronic spatial extent (au):  <R**2>=            669.4722
 Charge=             -1.0000 electrons
 Dipole moment (field-independent basis, Debye):
    X=              0.4738    Y=             -0.0251    Z=             -4.2341  Tot=              4.2606
 Quadrupole moment (field-independent basis, Debye-Ang):
   XX=            -35.9331   YY=            -35.7918   ZZ=            -65.1397
   XY=             -0.1305   XZ=             -0.5807   YZ=             -3.9904
 Traceless Quadrupole moment (field-independent basis, Debye-Ang):
   XX=              9.6884   YY=              9.8298   ZZ=            -19.5181
   XY=             -0.1305   XZ=             -0.5807   YZ=             -3.9904
 Octapole moment (field-independent basis, Debye-Ang**2):
  XXX=             19.4088  YYY=            100.8373  ZZZ=            -40.9041  XYY=              4.8356
  XXY=             31.0563  XXZ=             -4.6259  XZZ=              8.1108  YZZ=             25.0273
  YYZ=              0.2884  XYZ=             -0.9481
 Hexadecapole moment (field-independent basis, Debye-Ang**3):
 XXXX=            -92.5734 YYYY=           -483.1133 ZZZZ=           -604.7223 XXXY=            -20.8209
 XXXZ=            -16.1304 YYYX=            -16.9020 YYYZ=            -45.8735 ZZZX=            -19.3064
 ZZZY=            -72.8343 XXYY=            -91.0283 XXZZ=            -98.5672 YYZZ=           -140.9380
 XXYZ=            -14.3697 YYXZ=             -3.7579 ZZXY=             -5.3206
 N-N= 1.745427159540D+02 E-N=-9.864190599114D+02  KE= 2.664215729565D+02
  Exact polarizability:  57.276   1.944  62.956   3.019   5.069  93.255
 Approx polarizability:  73.895   3.555  77.725   3.163   2.711 130.571
 PrsmSu:  requested number of processors reduced to:  10 ShMem   1 Linda.
 PrsmSu:  requested number of processors reduced to:  11 ShMem   1 Linda.
 Calling FoFJK, ICntrl=    100127 FMM=F ISym2X=0 I1Cent= 0 IOpClX= 0 NMat=1 NMatS=1 NMatT=0.
 CoulSu:  requested number of processors reduced to:  11 ShMem   1 Linda.
 -------------------------------------------------------------------
 Center     Atomic                   Forces (Hartrees/Bohr)
 Number     Number              X              Y              Z
 -------------------------------------------------------------------
      1        6          -0.000227390   -0.000060255   -0.003592358
      2        8           0.000129016    0.000241768    0.004361819
      3        1           0.000016435    0.000098333    0.000171472
      4        1          -0.000000747   -0.000253400   -0.000447044
      5        1          -0.000000184    0.000021177    0.000094934
      6        1          -0.000113847   -0.000005371   -0.000075028
      7        1           0.000201398    0.000206926    0.000210264
      8        1          -0.000157618   -0.000113705    0.000377324
      9        1          -0.000037589   -0.000028101   -0.000111837
     10        6           0.000077901   -0.000166281   -0.000564512
     11        6          -0.000407253   -0.000535198   -0.000478595
     12        8           0.000519876    0.000594106    0.005053562
 -------------------------------------------------------------------
 Cartesian Forces:  Max     0.005053562 RMS     0.001290029
 -----------------------------------------------------------------------------------------------
                       Internal Coordinate Forces (Hartree/Bohr or radian)
  Cent   Atom   N1       Length/X         N2         Alpha/Y        N3         Beta/Z          J
 -----------------------------------------------------------------------------------------------
      1  C 
      2  O        1   0.003915(     1)
      3  H        1   0.000031(     2)      2  -0.000345(    12)
      4  H        2   0.000149(     3)      1  -0.000900(    13)      3  -0.000004(    22)     0
      5  H        1   0.000031(     4)      2  -0.000186(    14)      4   0.000022(    23)     0
      6  H        1   0.000110(     5)      2   0.000226(    15)      4   0.000241(    24)     0
      7  H        1  -0.000290(     6)      2  -0.000759(    16)      4  -0.001058(    25)     0
      8  H        1   0.000195(     7)      2  -0.001994(    17)      4   0.000825(    26)     0
      9  H        1   0.000033(     8)      2   0.000556(    18)      4   0.000231(    27)     0
     10  C        1   0.000256(     9)      2   0.002576(    19)      4  -0.000280(    28)     0
     11  C        1  -0.001910(    10)      2  -0.001771(    20)     10   0.000108(    29)     0
     12  O       11  -0.003585(    11)      1  -0.009662(    21)      2   0.000197(    30)     0
 -----------------------------------------------------------------------------------------------
 Internal  Forces:  Max     0.009662013 RMS     0.002183998

 GradGradGradGradGradGradGradGradGradGradGradGradGradGradGradGradGradGrad
 Berny optimization.
 Search for a saddle point.
 Step number   1 out of a maximum of  100
 All quantities printed in internal units (Hartrees-Bohrs-Radians)
 Swaping is turned off.
 Second derivative matrix not updated -- analytic derivatives used.
 ITU=  0
     Eigenvalues ---   -0.05679   0.00008   0.01105   0.01322   0.01463
     Eigenvalues ---    0.02487   0.02799   0.06466   0.07713   0.09360
     Eigenvalues ---    0.11130   0.16631   0.24547   0.26328   0.29263
     Eigenvalues ---    0.36555   0.38272   0.38810   0.41222   0.51165
     Eigenvalues ---    0.57495   0.92236   1.18807   2.67702   2.92612
     Eigenvalues ---    3.49605   5.33225   7.09809  17.50452  19.74085
 Eigenvectors required to have negative eigenvalues:
                          B1        A10       A1        A3        A9
   1                    0.69100  -0.50710  -0.32291  -0.31280  -0.14965
                          A2        B11       D1        B10       D2
   1                    0.11086   0.08666   0.07359  -0.06835  -0.06204
 RFO step:  Lambda0=1.035981532D-03 Lambda=-3.06826385D-04.
 Linear search not attempted -- option 19 set.
 Variable       Old X    -DE/DX   Delta X   Delta X   Delta X     New X
                                 (Linear)    (Quad)   (Total)
    B1        4.17387   0.00391   0.00000  -0.09038  -0.09038   4.08350
    B2        2.03513   0.00003   0.00000   0.00078   0.00078   2.03591
    B3        1.83147   0.00015   0.00000  -0.00061  -0.00061   1.83086
    B4        2.03390   0.00003   0.00000   0.00063   0.00063   2.03453
    B5        4.09962   0.00011   0.00000  -0.00264  -0.00264   4.09698
    B6        6.53167  -0.00029   0.00000   0.00295   0.00295   6.53463
    B7        5.73798   0.00019   0.00000  -0.01808  -0.01808   5.71989
    B8        5.17179   0.00003   0.00000   0.00611   0.00611   5.17790
    B9        4.86491   0.00026   0.00000  -0.00288  -0.00288   4.86203
   B10        2.74887  -0.00191   0.00000   0.00703   0.00703   2.75590
   B11        2.64906  -0.00359   0.00000  -0.01856  -0.01856   2.63050
    A1        1.48346  -0.00034   0.00000   0.04882   0.04882   1.53228
    A2        1.79140  -0.00090   0.00000  -0.07577  -0.07577   1.71563
    A3        1.43406  -0.00019   0.00000   0.06018   0.06018   1.49424
    A4        1.76355   0.00023   0.00000  -0.01046  -0.01046   1.75309
    A5        1.92765  -0.00076   0.00000  -0.02116  -0.02116   1.90649
    A6        1.38671  -0.00199   0.00000  -0.02129  -0.02129   1.36542
    A7        1.76531   0.00056   0.00000  -0.01590  -0.01590   1.74941
    A8        1.73692   0.00258   0.00000  -0.01889  -0.01889   1.71803
    A9        1.97801  -0.00177   0.00000  -0.00291  -0.00291   1.97510
   A10        1.33582  -0.00966   0.00000   0.04856   0.04856   1.38438
    D1       -1.52241   0.00000   0.00000  -0.01473  -0.01473  -1.53714
    D2        2.65096   0.00002   0.00000   0.00964   0.00964   2.66060
    D3        1.01995   0.00024   0.00000  -0.00477  -0.00477   1.01518
    D4        0.17873  -0.00106   0.00000  -0.00082  -0.00082   0.17792
    D5        0.14254   0.00082   0.00000   0.00007   0.00007   0.14262
    D6       -0.35148   0.00023   0.00000   0.00115   0.00115  -0.35033
    D7        0.06566  -0.00028   0.00000  -0.00073  -0.00073   0.06493
    D8        0.50536   0.00011   0.00000  -0.00381  -0.00381   0.50155
    D9        3.12374   0.00020   0.00000   0.00975   0.00975   3.13350
         Item               Value     Threshold  Converged?
 Maximum Force            0.009662     0.000450     NO 
 RMS     Force            0.002184     0.000300     NO 
 Maximum Displacement     0.090377     0.001800     NO 
 RMS     Displacement     0.028942     0.001200     NO 
 Predicted change in Energy= 3.727518D-04
 GradGradGradGradGradGradGradGradGradGradGradGradGradGradGradGradGradGrad

 ---------------------------------------------------------------------------------------------------
                            Z-MATRIX (ANGSTROMS AND DEGREES)
   CD    Cent   Atom    N1       Length/X        N2       Alpha/Y        N3        Beta/Z          J
 ---------------------------------------------------------------------------------------------------
      1      1  C 
      2      2  O        1   2.160894(     1)
      3      3  H        1   1.077356(     2)      2   87.793(    12)
      4      4  H        2   0.968849(     3)      1   98.298(    13)      3  -88.072(    22)      0
      5      5  H        1   1.076627(     4)      2   85.613(    14)      4  152.441(    23)      0
      6      6  H        1   2.168031(     5)      2  100.445(    15)      4   58.166(    24)      0
      7      7  H        1   3.457976(     6)      2  109.234(    16)      4   10.194(    25)      0
      8      8  H        1   3.026837(     7)      2   78.233(    17)      4    8.171(    26)      0
      9      9  H        1   2.740025(     8)      2  100.234(    18)      4  -20.072(    27)      0
     10     10  C        1   2.572874(     9)      2   98.436(    19)      4    3.720(    28)      0
     11     11  C        1   1.458359(    10)      2  113.165(    20)     10   28.736(    29)      0
     12     12  O       11   1.391999(    11)      1   79.319(    21)      2  179.536(    30)      0
 ---------------------------------------------------------------------------------------------------
                         Z-Matrix orientation:                         
 ---------------------------------------------------------------------
 Center     Atomic      Atomic             Coordinates (Angstroms)
 Number     Number       Type             X           Y           Z
 ---------------------------------------------------------------------
      1          6           0        0.000000    0.000000    0.000000
      2          8           0        0.000000    0.000000    2.160894
      3          1           0        1.076557    0.000000    0.041485
      4          1           0        0.032256   -0.958162    2.300726
      5          1           0       -0.528389    0.934424    0.082346
      6          1           0       -1.772523   -1.184924   -0.393034
      7          1           0       -0.469386   -3.231039   -1.139150
      8          1           0       -0.322247   -2.945654    0.617271
      9          1           0        1.010125   -2.500081   -0.486801
     10          6           0       -0.079598   -2.543792   -0.377445
     11          6           0       -0.681079   -1.154916   -0.573683
     12          8           0       -0.296808   -0.481498   -1.729757
 ---------------------------------------------------------------------
                    Distance matrix (angstroms):
                    1          2          3          4          5
     1  C    0.000000
     2  O    2.160894   0.000000
     3  H    1.077356   2.377155   0.000000
     4  H    2.492480   0.968849   2.666985   0.000000
     5  H    1.076627   2.339381   1.857598   2.969413   0.000000
     6  H    2.168031   3.326925   3.116104   3.250383   2.503096
     7  H    3.457976   4.642222   3.771399   4.153355   4.341269
     8  H    3.026837   3.341181   3.311353   2.628654   3.922199
     9  H    2.740025   3.779027   2.556151   3.332274   3.806151
    10  C    2.572874   3.594493   2.825434   3.114376   3.537062
    11  C    1.458359   3.045589   2.191243   2.968129   2.195229
    12  O    1.819889   3.931552   2.292438   4.071890   2.311317
                    6          7          8          9         10
     6  H    0.000000
     7  H    2.537999   0.000000
     8  H    2.494831   1.785527   0.000000
     9  H    3.079214   1.774489   1.786820   0.000000
    10  C    2.170889   1.097468   1.099923   1.096069   0.000000
    11  C    1.106700   2.162140   2.180338   2.162681   1.526193
    12  O    2.111722   2.817547   3.403123   2.706971   2.475678
                   11         12
    11  C    0.000000
    12  O    1.391999   0.000000
 Symmetry turned off by external request.
 Stoichiometry    C3H7O2(1-)
 Framework group  C1[X(C3H7O2)]
 Deg. of freedom    30
 Full point group                 C1      NOp   1
 Rotational constants (GHZ):      7.1844251      3.1831590      2.3873315
 Standard basis: 6-31++G(d,p) (6D, 7F)
 The following finite field(s) will be applied:
 An electric field of              0.0000  0.0000  0.0050
 Integral buffers will be    131072 words long.
 Raffenetti 2 integral format.
 Two-electron integral symmetry is turned off.
   137 basis functions,   216 primitive gaussians,   137 cartesian basis functions
    21 alpha electrons       21 beta electrons
       nuclear repulsion energy       175.0009073316 Hartrees.
 NAtoms=   12 NActive=   12 NUniq=   12 SFac= 1.00D+00 NAtFMM=   50 NAOKFM=F Big=F
 One-electron integrals computed using PRISM.
 PrsmSu:  requested number of processors reduced to:  10 ShMem   1 Linda.
 NBasis=   137 RedAO= T  NBF=   137
 NBsUse=   137 1.00D-06 NBFU=   137
 The nuclear repulsion energy is now       174.9892398347 hartrees.
 Initial guess read from the read-write file.
 B after Tr=     0.000000    0.000000    0.000000
         Rot=    1.000000    0.000000    0.000000    0.000000 Ang=   0.00 deg.
 Harris functional with IExCor=  402 diagonalized for initial guess.
 ExpMin= 3.60D-02 ExpMax= 5.48D+03 ExpMxC= 8.25D+02 IAcc=3 IRadAn=         0 AccDes= 0.00D+00
 HarFok:  IExCor=  402 AccDes= 0.00D+00 IRadAn=         0 IDoV= 1
 ScaDFX=  1.000000  1.000000  1.000000  1.000000
 FoFCou: FMM=F IPFlag=           0 FMFlag=      100000 FMFlg1=           0
         NFxFlg=           0 DoJE=T BraDBF=F KetDBF=T FulRan=T
         Omega=  0.000000  0.000000  1.000000  0.000000  0.000000 ICntrl=     500 IOpCl=  0
         NMat0=    1 NMatS0=    1 NMatT0=    0 NMatD0=    1 NMtDS0=    0 NMtDT0=    0
         I1Cent=           4 NGrid=           0.
 Symmetry not used in FoFCou.
 Requested convergence on RMS density matrix=1.00D-08 within 128 cycles.
 Requested convergence on MAX density matrix=1.00D-06.
 Requested convergence on             energy=1.00D-06.
 No special actions if energy rises.
 SCF Done:  E(RB3LYP) =  -268.950843637     A.U. after   12 cycles
             Convg  =    0.4559D-08             -V/T =  2.0095
 Range of M.O.s used for correlation:     1   137
 NBasis=   137 NAE=    21 NBE=    21 NFC=     0 NFV=     0
 NROrb=    137 NOA=    21 NOB=    21 NVA=   116 NVB=   116

 **** Warning!!: The largest alpha MO coefficient is  0.31515768D+02

 PrsmSu:  requested number of processors reduced to:  10 ShMem   1 Linda.
 PrsmSu:  requested number of processors reduced to:  18 ShMem   1 Linda.
 Symmetrizing basis deriv contribution to polar:
 IMax=3 JMax=2 DiffMx= 0.00D+00
 G2DrvN: will do     4 centers at a time, making    4 passes doing MaxLOS=2.
 Estimated number of processors is:   15
 Calling FoFCou, ICntrl=  3107 FMM=F I1Cent=   0 AccDes= 0.00D+00.
 CoulSu:  requested number of processors reduced to:  15 ShMem   1 Linda.
 Calling FoFCou, ICntrl=  3107 FMM=F I1Cent=   0 AccDes= 0.00D+00.
 CoulSu:  requested number of processors reduced to:  15 ShMem   1 Linda.
 Calling FoFCou, ICntrl=  3107 FMM=F I1Cent=   0 AccDes= 0.00D+00.
 CoulSu:  requested number of processors reduced to:  15 ShMem   1 Linda.
 Calling FoFCou, ICntrl=  3107 FMM=F I1Cent=   0 AccDes= 0.00D+00.
 CoulSu:  requested number of processors reduced to:  15 ShMem   1 Linda.
 FoFDir/FoFCou used for L=0 through L=2.
 End of G2Drv Frequency-dependent properties file   721 does not exist.
 End of G2Drv Frequency-dependent properties file   722 does not exist.
          IDoAtm=111111111111
          Differentiating once with respect to electric field.
                with respect to dipole field.
          Differentiating once with respect to nuclear coordinates.
 PrRfSu:  requested number of processors reduced to:  15 ShMem   1 Linda.
 CalDSu:  requested number of processors reduced to:  19 ShMem   1 Linda.
          There are    39 degrees of freedom in the 1st order CPHF.  IDoFFX=5.
     37 vectors produced by pass  0 Test12= 6.25D-15 2.56D-09 XBig12= 1.34D+02 6.47D+00.
 AX will form    37 AO Fock derivatives at one time.
 PrRfSu:  requested number of processors reduced to:  15 ShMem   1 Linda.
 CalDSu:  requested number of processors reduced to:  20 ShMem   1 Linda.
     36 vectors produced by pass  1 Test12= 6.25D-15 2.56D-09 XBig12= 7.76D+01 2.64D+00.
 PrRfSu:  requested number of processors reduced to:  15 ShMem   1 Linda.
 CalDSu:  requested number of processors reduced to:  20 ShMem   1 Linda.
     36 vectors produced by pass  2 Test12= 6.25D-15 2.56D-09 XBig12= 5.08D-01 1.05D-01.
 PrRfSu:  requested number of processors reduced to:  15 ShMem   1 Linda.
 CalDSu:  requested number of processors reduced to:  20 ShMem   1 Linda.
     36 vectors produced by pass  3 Test12= 6.25D-15 2.56D-09 XBig12= 2.03D-03 6.15D-03.
 PrRfSu:  requested number of processors reduced to:  15 ShMem   1 Linda.
 CalDSu:  requested number of processors reduced to:  20 ShMem   1 Linda.
     36 vectors produced by pass  4 Test12= 6.25D-15 2.56D-09 XBig12= 4.98D-06 3.61D-04.
 PrRfSu:  requested number of processors reduced to:  15 ShMem   1 Linda.
 CalDSu:  requested number of processors reduced to:  20 ShMem   1 Linda.
     34 vectors produced by pass  5 Test12= 6.25D-15 2.56D-09 XBig12= 6.56D-09 1.14D-05.
 PrRfSu:  requested number of processors reduced to:  16 ShMem   1 Linda.
 CalDSu:  requested number of processors reduced to:  20 ShMem   1 Linda.
      4 vectors produced by pass  6 Test12= 6.25D-15 2.56D-09 XBig12= 4.60D-12 3.23D-07.
      3 vectors produced by pass  7 Test12= 6.25D-15 2.56D-09 XBig12= 1.86D-14 2.33D-08.
 Inverted reduced A of dimension   222 with in-core refinement.
 Isotropic polarizability for W=    0.000000       72.06 Bohr**3.
 End of Minotr Frequency-dependent properties file   721 does not exist.
 End of Minotr Frequency-dependent properties file   722 does not exist.
 PrsmSu:  requested number of processors reduced to:  10 ShMem   1 Linda.
 PrsmSu:  requested number of processors reduced to:  11 ShMem   1 Linda.
 Calling FoFJK, ICntrl=    100127 FMM=F ISym2X=0 I1Cent= 0 IOpClX= 0 NMat=1 NMatS=1 NMatT=0.
 CoulSu:  requested number of processors reduced to:  11 ShMem   1 Linda.
 -------------------------------------------------------------------
 Center     Atomic                   Forces (Hartrees/Bohr)
 Number     Number              X              Y              Z
 -------------------------------------------------------------------
      1        6          -0.000016268    0.000388516    0.004968170
      2        8           0.000276137   -0.000030686   -0.000366498
      3        1           0.000179625   -0.000108106    0.000089629
      4        1           0.000000745    0.000094578    0.000315006
      5        1          -0.000229733    0.000056690    0.000117757
      6        1          -0.000019167    0.000069964   -0.000001736
      7        1          -0.000027281    0.000016972    0.000021816
      8        1          -0.000010368   -0.000051040    0.000056853
      9        1           0.000099505   -0.000011580   -0.000003490
     10        6          -0.000025525    0.000101493   -0.000069957
     11        6          -0.000275520   -0.000605830   -0.000095701
     12        8           0.000047849    0.000079031   -0.000031848
 -------------------------------------------------------------------
 Cartesian Forces:  Max     0.004968170 RMS     0.000846163
 -----------------------------------------------------------------------------------------------
                       Internal Coordinate Forces (Hartree/Bohr or radian)
  Cent   Atom   N1       Length/X         N2         Alpha/Y        N3         Beta/Z          J
 -----------------------------------------------------------------------------------------------
      1  C 
      2  O        1  -0.000051(     1)
      3  H        1   0.000183(     2)      2  -0.000168(    12)
      4  H        2  -0.000048(     3)      1   0.000596(    13)      3   0.000358(    22)     0
      5  H        1   0.000171(     4)      2  -0.000214(    14)      4  -0.000349(    23)     0
      6  H        1  -0.000022(     5)      2   0.000024(    15)      4   0.000277(    24)     0
      7  H        1  -0.000019(     6)      2  -0.000107(    16)      4   0.000182(    25)     0
      8  H        1   0.000062(     7)      2  -0.000258(    17)      4   0.000027(    26)     0
      9  H        1   0.000048(     8)      2  -0.000026(    18)      4  -0.000448(    27)     0
     10  C        1  -0.000089(     9)      2   0.000408(    19)      4  -0.000040(    28)     0
     11  C        1   0.000574(    10)      2  -0.000139(    20)     10  -0.000178(    29)     0
     12  O       11   0.000078(    11)      1  -0.000155(    21)      2   0.000004(    30)     0
 -----------------------------------------------------------------------------------------------
 Internal  Forces:  Max     0.000595664 RMS     0.000240175

 GradGradGradGradGradGradGradGradGradGradGradGradGradGradGradGradGradGrad
 Berny optimization.
 Search for a saddle point.
 Step number   2 out of a maximum of  100
 All quantities printed in internal units (Hartrees-Bohrs-Radians)
 Swaping is turned off.
 Second derivative matrix not updated -- analytic derivatives used.
 ITU=  0  0
     Eigenvalues ---   -0.05699   0.00011   0.01134   0.01355   0.01667
     Eigenvalues ---    0.02795   0.03666   0.06441   0.07608   0.10083
     Eigenvalues ---    0.10952   0.16925   0.23978   0.25820   0.29103
     Eigenvalues ---    0.36869   0.38250   0.38786   0.41060   0.51380
     Eigenvalues ---    0.55976   0.92961   1.17722   2.69460   2.91361
     Eigenvalues ---    3.55831   5.27391   7.07427  17.44147  19.72104
 Eigenvectors required to have negative eigenvalues:
                          B1        A10       A1        A3        A9
   1                    0.72604  -0.49459  -0.30548  -0.29177  -0.14266
                          B10       B11       D1        B7        A2
   1                   -0.08588   0.08255   0.06062   0.05882   0.05293
 RFO step:  Lambda0=6.815931713D-07 Lambda=-1.43623070D-05.
 Linear search not attempted -- option 19 set.
 Variable       Old X    -DE/DX   Delta X   Delta X   Delta X     New X
                                 (Linear)    (Quad)   (Total)
    B1        4.08350  -0.00005   0.00000  -0.00708  -0.00708   4.07642
    B2        2.03591   0.00018   0.00000   0.00040   0.00040   2.03630
    B3        1.83086  -0.00005   0.00000   0.00002   0.00002   1.83088
    B4        2.03453   0.00017   0.00000   0.00036   0.00036   2.03489
    B5        4.09698  -0.00002   0.00000   0.00044   0.00044   4.09743
    B6        6.53463  -0.00002   0.00000   0.00132   0.00132   6.53595
    B7        5.71989   0.00006   0.00000  -0.00116  -0.00116   5.71873
    B8        5.17790   0.00005   0.00000   0.00155   0.00155   5.17944
    B9        4.86203  -0.00009   0.00000   0.00050   0.00050   4.86252
   B10        2.75590   0.00057   0.00000   0.00128   0.00128   2.75718
   B11        2.63050   0.00008   0.00000   0.00049   0.00049   2.63099
    A1        1.53228  -0.00017   0.00000   0.00007   0.00007   1.53235
    A2        1.71563   0.00060   0.00000   0.01770   0.01770   1.73334
    A3        1.49424  -0.00021   0.00000  -0.00353  -0.00353   1.49071
    A4        1.75309   0.00002   0.00000   0.00153   0.00153   1.75462
    A5        1.90649  -0.00011   0.00000   0.00250   0.00250   1.90900
    A6        1.36542  -0.00026   0.00000   0.00270   0.00270   1.36813
    A7        1.74941  -0.00003   0.00000   0.00369   0.00369   1.75309
    A8        1.71803   0.00041   0.00000   0.00307   0.00307   1.72110
    A9        1.97510  -0.00014   0.00000   0.00245   0.00245   1.97755
   A10        1.38438  -0.00016   0.00000  -0.00033  -0.00033   1.38406
    D1       -1.53714   0.00036   0.00000   0.01518   0.01518  -1.52196
    D2        2.66060  -0.00035   0.00000   0.01237   0.01237   2.67297
    D3        1.01518   0.00028   0.00000   0.01441   0.01441   1.02959
    D4        0.17792   0.00018   0.00000   0.01450   0.01450   0.19242
    D5        0.14262   0.00003   0.00000   0.01315   0.01315   0.15577
    D6       -0.35033  -0.00045   0.00000   0.01376   0.01376  -0.33657
    D7        0.06493  -0.00004   0.00000   0.01389   0.01389   0.07883
    D8        0.50155  -0.00018   0.00000   0.00065   0.00065   0.50219
    D9        3.13350   0.00000   0.00000  -0.00198  -0.00198   3.13152
         Item               Value     Threshold  Converged?
 Maximum Force            0.000596     0.000450     NO 
 RMS     Force            0.000240     0.000300     YES
 Maximum Displacement     0.017705     0.001800     NO 
 RMS     Displacement     0.007725     0.001200     NO 
 Predicted change in Energy=-6.853149D-06
 GradGradGradGradGradGradGradGradGradGradGradGradGradGradGradGradGradGrad

 ---------------------------------------------------------------------------------------------------
                            Z-MATRIX (ANGSTROMS AND DEGREES)
   CD    Cent   Atom    N1       Length/X        N2       Alpha/Y        N3        Beta/Z          J
 ---------------------------------------------------------------------------------------------------
      1      1  C 
      2      2  O        1   2.157149(     1)
      3      3  H        1   1.077565(     2)      2   87.797(    12)
      4      4  H        2   0.968860(     3)      1   99.313(    13)      3  -87.202(    22)      0
      5      5  H        1   1.076820(     4)      2   85.411(    14)      4  153.150(    23)      0
      6      6  H        1   2.168265(     5)      2  100.532(    15)      4   58.991(    24)      0
      7      7  H        1   3.458673(     6)      2  109.377(    16)      4   11.025(    25)      0
      8      8  H        1   3.026224(     7)      2   78.388(    17)      4    8.925(    26)      0
      9      9  H        1   2.740844(     8)      2  100.445(    18)      4  -19.284(    27)      0
     10     10  C        1   2.573137(     9)      2   98.612(    19)      4    4.516(    28)      0
     11     11  C        1   1.459035(    10)      2  113.305(    20)     10   28.774(    29)      0
     12     12  O       11   1.392260(    11)      1   79.301(    21)      2  179.423(    30)      0
 ---------------------------------------------------------------------------------------------------
                         Z-Matrix orientation:                         
 ---------------------------------------------------------------------
 Center     Atomic      Atomic             Coordinates (Angstroms)
 Number     Number       Type             X           Y           Z
 ---------------------------------------------------------------------
      1          6           0        0.000000    0.000000    0.000000
      2          8           0        0.000000    0.000000    2.157149
      3          1           0        1.076769    0.000000    0.041419
      4          1           0        0.046669   -0.954950    2.313934
      5          1           0       -0.530962    0.932844    0.086150
      6          1           0       -1.771301   -1.186077   -0.396337
      7          1           0       -0.466874   -3.229175   -1.147553
      8          1           0       -0.316384   -2.947353    0.609135
      9          1           0        1.013294   -2.497712   -0.496887
     10          6           0       -0.076300   -2.542981   -0.385306
     11          6           0       -0.679939   -1.154668   -0.577240
     12          8           0       -0.296734   -0.476745   -1.731346
 ---------------------------------------------------------------------
                    Distance matrix (angstroms):
                    1          2          3          4          5
     1  C    0.000000
     2  O    2.157149   0.000000
     3  H    1.077565   2.373972   0.000000
     4  H    2.503677   0.968860   2.671584   0.000000
     5  H    1.076820   2.332628   1.859300   2.976650   0.000000
     6  H    2.168265   3.326346   3.116073   3.271697   2.502212
     7  H    3.458673   4.643985   3.771480   4.173453   4.341490
     8  H    3.026224   3.344149   3.309088   2.647227   3.921158
     9  H    2.740844   3.782755   2.555850   3.348909   3.807016
    10  C    2.573137   3.596755   2.824609   3.134144   3.536997
    11  C    1.459035   3.045071   2.191351   2.987764   2.195447
    12  O    1.820136   3.928833   2.292704   4.087896   2.311947
                    6          7          8          9         10
     6  H    0.000000
     7  H    2.537736   0.000000
     8  H    2.495967   1.785504   0.000000
     9  H    3.079686   1.774627   1.787038   0.000000
    10  C    2.171253   1.097466   1.100032   1.096227   0.000000
    11  C    1.106700   2.161997   2.180224   2.162697   1.525985
    12  O    2.111812   2.818801   3.403255   2.706358   2.475833
                   11         12
    11  C    0.000000
    12  O    1.392260   0.000000
 Symmetry turned off by external request.
 Stoichiometry    C3H7O2(1-)
 Framework group  C1[X(C3H7O2)]
 Deg. of freedom    30
 Full point group                 C1      NOp   1
 Rotational constants (GHZ):      7.1863768      3.1822803      2.3871594
 Standard basis: 6-31++G(d,p) (6D, 7F)
 The following finite field(s) will be applied:
 An electric field of              0.0000  0.0000  0.0050
 Integral buffers will be    131072 words long.
 Raffenetti 2 integral format.
 Two-electron integral symmetry is turned off.
   137 basis functions,   216 primitive gaussians,   137 cartesian basis functions
    21 alpha electrons       21 beta electrons
       nuclear repulsion energy       174.9869313243 Hartrees.
 NAtoms=   12 NActive=   12 NUniq=   12 SFac= 1.00D+00 NAtFMM=   50 NAOKFM=F Big=F
 One-electron integrals computed using PRISM.
 PrsmSu:  requested number of processors reduced to:  10 ShMem   1 Linda.
 NBasis=   137 RedAO= T  NBF=   137
 NBsUse=   137 1.00D-06 NBFU=   137
 The nuclear repulsion energy is now       174.9740906897 hartrees.
 Initial guess read from the read-write file.
 B after Tr=     0.000000    0.000000    0.000000
         Rot=    1.000000    0.000000    0.000000    0.000000 Ang=   0.00 deg.
 Requested convergence on RMS density matrix=1.00D-08 within 128 cycles.
 Requested convergence on MAX density matrix=1.00D-06.
 Requested convergence on             energy=1.00D-06.
 No special actions if energy rises.
 SCF Done:  E(RB3LYP) =  -268.950850502     A.U. after   10 cycles
             Convg  =    0.6961D-08             -V/T =  2.0095
 Range of M.O.s used for correlation:     1   137
 NBasis=   137 NAE=    21 NBE=    21 NFC=     0 NFV=     0
 NROrb=    137 NOA=    21 NOB=    21 NVA=   116 NVB=   116

 **** Warning!!: The largest alpha MO coefficient is  0.31422693D+02

 PrsmSu:  requested number of processors reduced to:  10 ShMem   1 Linda.
 PrsmSu:  requested number of processors reduced to:  18 ShMem   1 Linda.
 Symmetrizing basis deriv contribution to polar:
 IMax=3 JMax=2 DiffMx= 0.00D+00
 G2DrvN: will do     4 centers at a time, making    4 passes doing MaxLOS=2.
 Estimated number of processors is:   15
 Calling FoFCou, ICntrl=  3107 FMM=F I1Cent=   0 AccDes= 0.00D+00.
 CoulSu:  requested number of processors reduced to:  15 ShMem   1 Linda.
 Calling FoFCou, ICntrl=  3107 FMM=F I1Cent=   0 AccDes= 0.00D+00.
 CoulSu:  requested number of processors reduced to:  15 ShMem   1 Linda.
 Calling FoFCou, ICntrl=  3107 FMM=F I1Cent=   0 AccDes= 0.00D+00.
 CoulSu:  requested number of processors reduced to:  15 ShMem   1 Linda.
 Calling FoFCou, ICntrl=  3107 FMM=F I1Cent=   0 AccDes= 0.00D+00.
 CoulSu:  requested number of processors reduced to:  15 ShMem   1 Linda.
 FoFDir/FoFCou used for L=0 through L=2.
 End of G2Drv Frequency-dependent properties file   721 does not exist.
 End of G2Drv Frequency-dependent properties file   722 does not exist.
          IDoAtm=111111111111
          Differentiating once with respect to electric field.
                with respect to dipole field.
          Differentiating once with respect to nuclear coordinates.
 PrRfSu:  requested number of processors reduced to:  15 ShMem   1 Linda.
 CalDSu:  requested number of processors reduced to:  19 ShMem   1 Linda.
          There are    39 degrees of freedom in the 1st order CPHF.  IDoFFX=5.
     37 vectors produced by pass  0 Test12= 6.25D-15 2.56D-09 XBig12= 1.34D+02 6.45D+00.
 AX will form    37 AO Fock derivatives at one time.
 PrRfSu:  requested number of processors reduced to:  15 ShMem   1 Linda.
 CalDSu:  requested number of processors reduced to:  20 ShMem   1 Linda.
     36 vectors produced by pass  1 Test12= 6.25D-15 2.56D-09 XBig12= 7.71D+01 2.64D+00.
 PrRfSu:  requested number of processors reduced to:  15 ShMem   1 Linda.
 CalDSu:  requested number of processors reduced to:  20 ShMem   1 Linda.
     36 vectors produced by pass  2 Test12= 6.25D-15 2.56D-09 XBig12= 5.03D-01 1.04D-01.
 PrRfSu:  requested number of processors reduced to:  15 ShMem   1 Linda.
 CalDSu:  requested number of processors reduced to:  20 ShMem   1 Linda.
     36 vectors produced by pass  3 Test12= 6.25D-15 2.56D-09 XBig12= 2.03D-03 6.23D-03.
 PrRfSu:  requested number of processors reduced to:  15 ShMem   1 Linda.
 CalDSu:  requested number of processors reduced to:  20 ShMem   1 Linda.
     36 vectors produced by pass  4 Test12= 6.25D-15 2.56D-09 XBig12= 5.05D-06 3.69D-04.
 PrRfSu:  requested number of processors reduced to:  15 ShMem   1 Linda.
 CalDSu:  requested number of processors reduced to:  20 ShMem   1 Linda.
     34 vectors produced by pass  5 Test12= 6.25D-15 2.56D-09 XBig12= 6.63D-09 1.15D-05.
 PrRfSu:  requested number of processors reduced to:  16 ShMem   1 Linda.
 CalDSu:  requested number of processors reduced to:  20 ShMem   1 Linda.
      5 vectors produced by pass  6 Test12= 6.25D-15 2.56D-09 XBig12= 4.66D-12 3.21D-07.
      3 vectors produced by pass  7 Test12= 6.25D-15 2.56D-09 XBig12= 1.50D-14 2.24D-08.
      1 vectors produced by pass  8 Test12= 6.25D-15 2.56D-09 XBig12= 1.64D-16 3.05D-09.
 Inverted reduced A of dimension   224 with in-core refinement.
 Isotropic polarizability for W=    0.000000       72.08 Bohr**3.
 End of Minotr Frequency-dependent properties file   721 does not exist.
 End of Minotr Frequency-dependent properties file   722 does not exist.
 PrsmSu:  requested number of processors reduced to:  10 ShMem   1 Linda.
 PrsmSu:  requested number of processors reduced to:  11 ShMem   1 Linda.
 Calling FoFJK, ICntrl=    100127 FMM=F ISym2X=0 I1Cent= 0 IOpClX= 0 NMat=1 NMatS=1 NMatT=0.
 CoulSu:  requested number of processors reduced to:  11 ShMem   1 Linda.
 -------------------------------------------------------------------
 Center     Atomic                   Forces (Hartrees/Bohr)
 Number     Number              X              Y              Z
 -------------------------------------------------------------------
      1        6          -0.000262575   -0.000232140    0.004990486
      2        8           0.000263893    0.000160522    0.000005709
      3        1          -0.000000099    0.000070319    0.000000007
      4        1           0.000001087    0.000002136    0.000001691
      5        1          -0.000000533    0.000000075    0.000000292
      6        1           0.000000172    0.000000650   -0.000000632
      7        1          -0.000000209    0.000000611    0.000000830
      8        1           0.000000358    0.000000384   -0.000001454
      9        1           0.000003095    0.000000127    0.000000083
     10        6          -0.000002418   -0.000001930    0.000000436
     11        6          -0.000002616   -0.000002582   -0.000000668
     12        8          -0.000000156    0.000001830    0.000003220
 -------------------------------------------------------------------
 Cartesian Forces:  Max     0.004990486 RMS     0.000835468
 -----------------------------------------------------------------------------------------------
                       Internal Coordinate Forces (Hartree/Bohr or radian)
  Cent   Atom   N1       Length/X         N2         Alpha/Y        N3         Beta/Z          J
 -----------------------------------------------------------------------------------------------
      1  C 
      2  O        1   0.000007(     1)
      3  H        1   0.000000(     2)      2   0.000000(    12)
      4  H        2  -0.000002(     3)      1   0.000004(    13)      3   0.000001(    22)     0
      5  H        1   0.000000(     4)      2  -0.000001(    14)      4  -0.000001(    23)     0
      6  H        1   0.000000(     5)      2   0.000003(    15)      4   0.000002(    24)     0
      7  H        1  -0.000001(     6)      2  -0.000004(    16)      4   0.000002(    25)     0
      8  H        1  -0.000001(     7)      2   0.000008(    17)      4  -0.000002(    26)     0
      9  H        1   0.000001(     8)      2  -0.000001(    18)      4  -0.000015(    27)     0
     10  C        1   0.000002(     9)      2  -0.000004(    19)      4   0.000015(    28)     0
     11  C        1   0.000001(    10)      2  -0.000001(    20)     10   0.000004(    29)     0
     12  O       11  -0.000002(    11)      1  -0.000008(    21)      2  -0.000003(    30)     0
 -----------------------------------------------------------------------------------------------
 Internal  Forces:  Max     0.000014896 RMS     0.000004892

 GradGradGradGradGradGradGradGradGradGradGradGradGradGradGradGradGradGrad
 Berny optimization.
 Search for a saddle point.
 Step number   3 out of a maximum of  100
 All quantities printed in internal units (Hartrees-Bohrs-Radians)
 Swaping is turned off.
 Second derivative matrix not updated -- analytic derivatives used.
 ITU=  0  0  0
     Eigenvalues ---   -0.05753   0.00011   0.01136   0.01358   0.01652
     Eigenvalues ---    0.02815   0.03639   0.06441   0.07610   0.10119
     Eigenvalues ---    0.10993   0.16955   0.23980   0.25836   0.29053
     Eigenvalues ---    0.36860   0.38210   0.38732   0.41044   0.51370
     Eigenvalues ---    0.55855   0.92966   1.17720   2.69277   2.91464
     Eigenvalues ---    3.56055   5.27086   7.06750  17.42636  19.70197
 Eigenvectors required to have negative eigenvalues:
                          B1        A10       A1        A3        A9
   1                    0.72420  -0.49524  -0.30569  -0.29276  -0.14199
                          B10       B11       A2        D1        B7
   1                   -0.08637   0.08275   0.06421   0.06182   0.05812
 RFO step:  Lambda0=1.632167998D-09 Lambda= 0.00000000D+00.
 Linear search not attempted -- option 19 set.
 Variable       Old X    -DE/DX   Delta X   Delta X   Delta X     New X
                                 (Linear)    (Quad)   (Total)
    B1        4.07642   0.00001   0.00000  -0.00014  -0.00014   4.07628
    B2        2.03630   0.00000   0.00000   0.00001   0.00001   2.03631
    B3        1.83088   0.00000   0.00000   0.00000   0.00000   1.83088
    B4        2.03489   0.00000   0.00000   0.00000   0.00000   2.03490
    B5        4.09743   0.00000   0.00000  -0.00004  -0.00004   4.09739
    B6        6.53595   0.00000   0.00000   0.00002   0.00002   6.53597
    B7        5.71873   0.00000   0.00000  -0.00012  -0.00012   5.71862
    B8        5.17944   0.00000   0.00000   0.00006   0.00006   5.17950
    B9        4.86252   0.00000   0.00000  -0.00001  -0.00001   4.86252
   B10        2.75718   0.00000   0.00000   0.00001   0.00001   2.75718
   B11        2.63099   0.00000   0.00000  -0.00001  -0.00001   2.63098
    A1        1.53235   0.00000   0.00000   0.00019   0.00019   1.53254
    A2        1.73334   0.00000   0.00000   0.00014   0.00014   1.73348
    A3        1.49071   0.00000   0.00000  -0.00006  -0.00006   1.49065
    A4        1.75462   0.00000   0.00000  -0.00005  -0.00005   1.75457
    A5        1.90900   0.00000   0.00000   0.00002   0.00002   1.90901
    A6        1.36813   0.00001   0.00000   0.00002   0.00002   1.36815
    A7        1.75309   0.00000   0.00000   0.00010   0.00010   1.75320
    A8        1.72110   0.00000   0.00000   0.00005   0.00005   1.72115
    A9        1.97755   0.00000   0.00000   0.00001   0.00001   1.97756
   A10        1.38406  -0.00001   0.00000   0.00005   0.00005   1.38411
    D1       -1.52196   0.00000   0.00000   0.00296   0.00296  -1.51901
    D2        2.67297   0.00000   0.00000   0.00302   0.00302   2.67599
    D3        1.02959   0.00000   0.00000   0.00303   0.00303   1.03262
    D4        0.19242   0.00000   0.00000   0.00306   0.00306   0.19547
    D5        0.15577   0.00000   0.00000   0.00298   0.00298   0.15875
    D6       -0.33657  -0.00001   0.00000   0.00302   0.00302  -0.33355
    D7        0.07883   0.00001   0.00000   0.00302   0.00302   0.08185
    D8        0.50219   0.00000   0.00000   0.00003   0.00003   0.50222
    D9        3.13152   0.00000   0.00000  -0.00012  -0.00012   3.13140
         Item               Value     Threshold  Converged?
 Maximum Force            0.000015     0.000450     YES
 RMS     Force            0.000005     0.000300     YES
 Maximum Displacement     0.003056     0.001800     NO 
 RMS     Displacement     0.001456     0.001200     NO 
 Predicted change in Energy=-2.963813D-09
 GradGradGradGradGradGradGradGradGradGradGradGradGradGradGradGradGradGrad

 ---------------------------------------------------------------------------------------------------
                            Z-MATRIX (ANGSTROMS AND DEGREES)
   CD    Cent   Atom    N1       Length/X        N2       Alpha/Y        N3        Beta/Z          J
 ---------------------------------------------------------------------------------------------------
      1      1  C 
      2      2  O        1   2.157076(     1)
      3      3  H        1   1.077569(     2)      2   87.808(    12)
      4      4  H        2   0.968861(     3)      1   99.321(    13)      3  -87.033(    22)      0
      5      5  H        1   1.076822(     4)      2   85.408(    14)      4  153.323(    23)      0
      6      6  H        1   2.168244(     5)      2  100.529(    15)      4   59.165(    24)      0
      7      7  H        1   3.458686(     6)      2  109.378(    16)      4   11.200(    25)      0
      8      8  H        1   3.026163(     7)      2   78.389(    17)      4    9.096(    26)      0
      9      9  H        1   2.740874(     8)      2  100.451(    18)      4  -19.111(    27)      0
     10     10  C        1   2.573134(     9)      2   98.615(    19)      4    4.690(    28)      0
     11     11  C        1   1.459038(    10)      2  113.306(    20)     10   28.775(    29)      0
     12     12  O       11   1.392257(    11)      1   79.303(    21)      2  179.416(    30)      0
 ---------------------------------------------------------------------------------------------------
                         Z-Matrix orientation:                         
 ---------------------------------------------------------------------
 Center     Atomic      Atomic             Coordinates (Angstroms)
 Number     Number       Type             X           Y           Z
 ---------------------------------------------------------------------
      1          6           0        0.000000    0.000000    0.000000
      2          8           0        0.000000    0.000000    2.157076
      3          1           0        1.076781    0.000000    0.041210
      4          1           0        0.049490   -0.954787    2.313996
      5          1           0       -0.530905    0.932873    0.086216
      6          1           0       -1.771387   -1.185949   -0.396225
      7          1           0       -0.467198   -3.229120   -1.147615
      8          1           0       -0.316454   -2.947300    0.609051
      9          1           0        1.013116   -2.497760   -0.497170
     10          6           0       -0.076471   -2.542955   -0.385421
     11          6           0       -0.680049   -1.154599   -0.577259
     12          8           0       -0.296941   -0.476669   -1.731390
 ---------------------------------------------------------------------
                    Distance matrix (angstroms):
                    1          2          3          4          5
     1  C    0.000000
     2  O    2.157076   0.000000
     3  H    1.077569   2.374100   0.000000
     4  H    2.503726   0.968861   2.670674   0.000000
     5  H    1.076822   2.332504   1.859283   2.977100   0.000000
     6  H    2.168244   3.326205   3.116070   3.273274   2.502190
     7  H    3.458686   4.643972   3.771523   4.174003   4.341495
     8  H    3.026163   3.344114   3.309097   2.647802   3.921108
     9  H    2.740874   3.782887   2.555917   3.348432   3.807044
    10  C    2.573134   3.596771   2.824646   3.134485   3.536995
    11  C    1.459038   3.045021   2.191359   2.988562   2.195446
    12  O    1.820192   3.928812   2.292692   4.088246   2.311978
                    6          7          8          9         10
     6  H    0.000000
     7  H    2.537724   0.000000
     8  H    2.495950   1.785503   0.000000
     9  H    3.079691   1.774625   1.787056   0.000000
    10  C    2.171249   1.097465   1.100028   1.096235   0.000000
    11  C    1.106696   2.162001   2.180208   2.162708   1.525988
    12  O    2.111809   2.818823   3.403243   2.706355   2.475839
                   11         12
    11  C    0.000000
    12  O    1.392257   0.000000
 Symmetry turned off by external request.
 Stoichiometry    C3H7O2(1-)
 Framework group  C1[X(C3H7O2)]
 Deg. of freedom    30
 Full point group                 C1      NOp   1
 Rotational constants (GHZ):      7.1864437      3.1822521      2.3871535
 Standard basis: 6-31++G(d,p) (6D, 7F)
 The following finite field(s) will be applied:
 An electric field of              0.0000  0.0000  0.0050
 Integral buffers will be    131072 words long.
 Raffenetti 2 integral format.
 Two-electron integral symmetry is turned off.
   137 basis functions,   216 primitive gaussians,   137 cartesian basis functions
    21 alpha electrons       21 beta electrons
       nuclear repulsion energy       174.9864247539 Hartrees.
 NAtoms=   12 NActive=   12 NUniq=   12 SFac= 1.00D+00 NAtFMM=   50 NAOKFM=F Big=F
 One-electron integrals computed using PRISM.
 PrsmSu:  requested number of processors reduced to:  10 ShMem   1 Linda.
 NBasis=   137 RedAO= T  NBF=   137
 NBsUse=   137 1.00D-06 NBFU=   137
 The nuclear repulsion energy is now       174.9735639145 hartrees.
 Initial guess read from the read-write file.
 B after Tr=     0.000000    0.000000    0.000000
         Rot=    1.000000    0.000000    0.000000    0.000000 Ang=   0.00 deg.
 Requested convergence on RMS density matrix=1.00D-08 within 128 cycles.
 Requested convergence on MAX density matrix=1.00D-06.
 Requested convergence on             energy=1.00D-06.
 No special actions if energy rises.
 SCF Done:  E(RB3LYP) =  -268.950850505     A.U. after    9 cycles
             Convg  =    0.2888D-08             -V/T =  2.0095
 Range of M.O.s used for correlation:     1   137
 NBasis=   137 NAE=    21 NBE=    21 NFC=     0 NFV=     0
 NROrb=    137 NOA=    21 NOB=    21 NVA=   116 NVB=   116

 **** Warning!!: The largest alpha MO coefficient is  0.31424056D+02

 PrsmSu:  requested number of processors reduced to:  10 ShMem   1 Linda.
 PrsmSu:  requested number of processors reduced to:  18 ShMem   1 Linda.
 Symmetrizing basis deriv contribution to polar:
 IMax=3 JMax=2 DiffMx= 0.00D+00
 G2DrvN: will do     4 centers at a time, making    4 passes doing MaxLOS=2.
 Estimated number of processors is:   15
 Calling FoFCou, ICntrl=  3107 FMM=F I1Cent=   0 AccDes= 0.00D+00.
 CoulSu:  requested number of processors reduced to:  15 ShMem   1 Linda.
 Calling FoFCou, ICntrl=  3107 FMM=F I1Cent=   0 AccDes= 0.00D+00.
 CoulSu:  requested number of processors reduced to:  15 ShMem   1 Linda.
 Calling FoFCou, ICntrl=  3107 FMM=F I1Cent=   0 AccDes= 0.00D+00.
 CoulSu:  requested number of processors reduced to:  15 ShMem   1 Linda.
 Calling FoFCou, ICntrl=  3107 FMM=F I1Cent=   0 AccDes= 0.00D+00.
 CoulSu:  requested number of processors reduced to:  15 ShMem   1 Linda.
 FoFDir/FoFCou used for L=0 through L=2.
 End of G2Drv Frequency-dependent properties file   721 does not exist.
 End of G2Drv Frequency-dependent properties file   722 does not exist.
          IDoAtm=111111111111
          Differentiating once with respect to electric field.
                with respect to dipole field.
          Differentiating once with respect to nuclear coordinates.
 PrRfSu:  requested number of processors reduced to:  15 ShMem   1 Linda.
 CalDSu:  requested number of processors reduced to:  19 ShMem   1 Linda.
          There are    39 degrees of freedom in the 1st order CPHF.  IDoFFX=5.
     37 vectors produced by pass  0 Test12= 6.25D-15 2.56D-09 XBig12= 1.34D+02 6.45D+00.
 AX will form    37 AO Fock derivatives at one time.
 PrRfSu:  requested number of processors reduced to:  15 ShMem   1 Linda.
 CalDSu:  requested number of processors reduced to:  20 ShMem   1 Linda.
     36 vectors produced by pass  1 Test12= 6.25D-15 2.56D-09 XBig12= 7.71D+01 2.64D+00.
 PrRfSu:  requested number of processors reduced to:  15 ShMem   1 Linda.
 CalDSu:  requested number of processors reduced to:  20 ShMem   1 Linda.
     36 vectors produced by pass  2 Test12= 6.25D-15 2.56D-09 XBig12= 5.02D-01 1.03D-01.
 PrRfSu:  requested number of processors reduced to:  15 ShMem   1 Linda.
 CalDSu:  requested number of processors reduced to:  20 ShMem   1 Linda.
     36 vectors produced by pass  3 Test12= 6.25D-15 2.56D-09 XBig12= 2.02D-03 6.25D-03.
 PrRfSu:  requested number of processors reduced to:  15 ShMem   1 Linda.
 CalDSu:  requested number of processors reduced to:  20 ShMem   1 Linda.
     36 vectors produced by pass  4 Test12= 6.25D-15 2.56D-09 XBig12= 5.03D-06 3.69D-04.
 PrRfSu:  requested number of processors reduced to:  15 ShMem   1 Linda.
 CalDSu:  requested number of processors reduced to:  20 ShMem   1 Linda.
     34 vectors produced by pass  5 Test12= 6.25D-15 2.56D-09 XBig12= 6.62D-09 1.15D-05.
 PrRfSu:  requested number of processors reduced to:  16 ShMem   1 Linda.
 CalDSu:  requested number of processors reduced to:  20 ShMem   1 Linda.
      5 vectors produced by pass  6 Test12= 6.25D-15 2.56D-09 XBig12= 4.66D-12 3.06D-07.
      3 vectors produced by pass  7 Test12= 6.25D-15 2.56D-09 XBig12= 1.39D-14 2.05D-08.
      1 vectors produced by pass  8 Test12= 6.25D-15 2.56D-09 XBig12= 4.14D-16 4.41D-09.
 Inverted reduced A of dimension   224 with in-core refinement.
 Isotropic polarizability for W=    0.000000       72.09 Bohr**3.
 End of Minotr Frequency-dependent properties file   721 does not exist.
 End of Minotr Frequency-dependent properties file   722 does not exist.
 PrsmSu:  requested number of processors reduced to:  10 ShMem   1 Linda.
 PrsmSu:  requested number of processors reduced to:  11 ShMem   1 Linda.
 Calling FoFJK, ICntrl=    100127 FMM=F ISym2X=0 I1Cent= 0 IOpClX= 0 NMat=1 NMatS=1 NMatT=0.
 CoulSu:  requested number of processors reduced to:  11 ShMem   1 Linda.
 -------------------------------------------------------------------
 Center     Atomic                   Forces (Hartrees/Bohr)
 Number     Number              X              Y              Z
 -------------------------------------------------------------------
      1        6          -0.000267043   -0.000233019    0.004999998
      2        8           0.000267047    0.000162396    0.000000001
      3        1          -0.000000001    0.000070622   -0.000000004
      4        1          -0.000000010    0.000000004    0.000000004
      5        1           0.000000004   -0.000000001   -0.000000008
      6        1          -0.000000004    0.000000001    0.000000000
      7        1           0.000000002    0.000000008    0.000000000
      8        1           0.000000009    0.000000017   -0.000000018
      9        1          -0.000000008    0.000000002    0.000000002
     10        6          -0.000000007   -0.000000029    0.000000018
     11        6           0.000000010   -0.000000010    0.000000002
     12        8           0.000000002    0.000000008    0.000000005
 -------------------------------------------------------------------
 Cartesian Forces:  Max     0.004999998 RMS     0.000837129
 -----------------------------------------------------------------------------------------------
                       Internal Coordinate Forces (Hartree/Bohr or radian)
  Cent   Atom   N1       Length/X         N2         Alpha/Y        N3         Beta/Z          J
 -----------------------------------------------------------------------------------------------
      1  C 
      2  O        1   0.000000(     1)
      3  H        1   0.000000(     2)      2   0.000000(    12)
      4  H        2   0.000000(     3)      1   0.000000(    13)      3   0.000000(    22)     0
      5  H        1   0.000000(     4)      2   0.000000(    14)      4   0.000000(    23)     0
      6  H        1   0.000000(     5)      2   0.000000(    15)      4   0.000000(    24)     0
      7  H        1   0.000000(     6)      2   0.000000(    16)      4   0.000000(    25)     0
      8  H        1   0.000000(     7)      2   0.000000(    17)      4   0.000000(    26)     0
      9  H        1   0.000000(     8)      2   0.000000(    18)      4   0.000000(    27)     0
[...]
 Number     Number              X              Y              Z
 -------------------------------------------------------------------
      1        6          -0.000267048   -0.000233024    0.004999996
      2        8           0.000267047    0.000162397    0.000000002
      3        1           0.000000005    0.000070623   -0.000000003
      4        1          -0.000000010    0.000000004    0.000000003
      5        1           0.000000003    0.000000003   -0.000000007
      6        1          -0.000000001    0.000000002    0.000000000
      7        1           0.000000002    0.000000009    0.000000001
      8        1           0.000000009    0.000000017   -0.000000017
      9        1          -0.000000007    0.000000001    0.000000003
     10        6          -0.000000011   -0.000000026    0.000000016
     11        6           0.000000009   -0.000000013   -0.000000004
     12        8           0.000000002    0.000000006    0.000000010
 -------------------------------------------------------------------
 Cartesian Forces:  Max     0.004999996 RMS     0.000837129
 -----------------------------------------------------------------------------------------------
                       Internal Coordinate Forces (Hartree/Bohr or radian)
  Cent   Atom   N1       Length/X         N2         Alpha/Y        N3         Beta/Z          J
 -----------------------------------------------------------------------------------------------
      1  C 
      2  O        1   0.000000(     1)
      3  H        1   0.000000(     2)      2   0.000000(    12)
      4  H        2   0.000000(     3)      1   0.000000(    13)      3   0.000000(    22)     0
      5  H        1   0.000000(     4)      2   0.000000(    14)      4   0.000000(    23)     0
      6  H        1   0.000000(     5)      2   0.000000(    15)      4   0.000000(    24)     0
      7  H        1   0.000000(     6)      2   0.000000(    16)      4   0.000000(    25)     0
      8  H        1   0.000000(     7)      2   0.000000(    17)      4   0.000000(    26)     0
      9  H        1   0.000000(     8)      2   0.000000(    18)      4   0.000000(    27)     0
     10  C        1   0.000000(     9)      2   0.000000(    19)      4   0.000000(    28)     0
     11  C        1   0.000000(    10)      2   0.000000(    20)     10   0.000000(    29)     0
     12  O       11   0.000000(    11)      1   0.000000(    21)      2   0.000000(    30)     0
 -----------------------------------------------------------------------------------------------
 Internal  Forces:  Max     0.000000096 RMS     0.000000028

 GradGradGradGradGradGradGradGradGradGradGradGradGradGradGradGradGradGrad
 Berny optimization.
 Search for a saddle point.
 Step number   1 out of a maximum of    2
 All quantities printed in internal units (Hartrees-Bohrs-Radians)
 Swaping is turned off.
 Second derivative matrix not updated -- analytic derivatives used.
 ITU=  0
     Eigenvalues ---   -0.05753   0.00011   0.01136   0.01358   0.01651
     Eigenvalues ---    0.02816   0.03639   0.06441   0.07610   0.10119
     Eigenvalues ---    0.10994   0.16955   0.23980   0.25837   0.29051
     Eigenvalues ---    0.36860   0.38209   0.38731   0.41044   0.51369
     Eigenvalues ---    0.55853   0.92966   1.17720   2.69268   2.91463
     Eigenvalues ---    3.56080   5.27084   7.06732  17.42589  19.70172
 Eigenvectors required to have negative eigenvalues:
                          B1        A10       A1        A3        A9
   1                    0.72425  -0.49520  -0.30562  -0.29275  -0.14201
                          B10       B11       A2        D1        B7
   1                   -0.08639   0.08275   0.06429   0.06187   0.05812
 Angle between quadratic step and forces=  87.46 degrees.
 Linear search not attempted -- option 19 set.
 Variable       Old X    -DE/DX   Delta X   Delta X   Delta X     New X
                                 (Linear)    (Quad)   (Total)
    B1        4.07628   0.00000   0.00000   0.00000   0.00000   4.07628
    B2        2.03631   0.00000   0.00000   0.00000   0.00000   2.03631
    B3        1.83088   0.00000   0.00000   0.00000   0.00000   1.83088
    B4        2.03490   0.00000   0.00000   0.00000   0.00000   2.03490
    B5        4.09739   0.00000   0.00000   0.00000   0.00000   4.09739
    B6        6.53597   0.00000   0.00000   0.00000   0.00000   6.53597
    B7        5.71862   0.00000   0.00000   0.00000   0.00000   5.71862
    B8        5.17950   0.00000   0.00000   0.00000   0.00000   5.17950
    B9        4.86252   0.00000   0.00000   0.00000   0.00000   4.86252
   B10        2.75718   0.00000   0.00000   0.00000   0.00000   2.75718
   B11        2.63098   0.00000   0.00000   0.00000   0.00000   2.63098
    A1        1.53254   0.00000   0.00000   0.00000   0.00000   1.53254
    A2        1.73348   0.00000   0.00000   0.00000   0.00000   1.73348
    A3        1.49065   0.00000   0.00000   0.00000   0.00000   1.49065
    A4        1.75457   0.00000   0.00000   0.00000   0.00000   1.75457
    A5        1.90901   0.00000   0.00000   0.00000   0.00000   1.90901
    A6        1.36815   0.00000   0.00000   0.00000   0.00000   1.36815
    A7        1.75320   0.00000   0.00000   0.00000   0.00000   1.75320
    A8        1.72115   0.00000   0.00000   0.00000   0.00000   1.72115
    A9        1.97756   0.00000   0.00000   0.00000   0.00000   1.97756
   A10        1.38411   0.00000   0.00000   0.00000   0.00000   1.38411
    D1       -1.51901   0.00000   0.00000  -0.00002  -0.00002  -1.51903
    D2        2.67599   0.00000   0.00000  -0.00002  -0.00002   2.67596
    D3        1.03262   0.00000   0.00000  -0.00002  -0.00002   1.03260
    D4        0.19547   0.00000   0.00000  -0.00002  -0.00002   0.19545
    D5        0.15875   0.00000   0.00000  -0.00002  -0.00002   0.15873
    D6       -0.33355   0.00000   0.00000  -0.00002  -0.00002  -0.33357
    D7        0.08185   0.00000   0.00000  -0.00002  -0.00002   0.08183
    D8        0.50222   0.00000   0.00000   0.00000   0.00000   0.50222
    D9        3.13140   0.00000   0.00000   0.00000   0.00000   3.13140
         Item               Value     Threshold  Converged?
 Maximum Force            0.000000     0.000450     YES
 RMS     Force            0.000000     0.000300     YES
 Maximum Displacement     0.000022     0.001800     YES
 RMS     Displacement     0.000011     0.001200     YES
 Predicted change in Energy=-1.932883D-13
 Optimization completed.
    -- Stationary point found.
                       ----------------------------
                       !   Optimized Parameters   !
                       ! (Angstroms and Degrees)  !
 ----------------------                            ----------------------
 !      Name          Value   Derivative information (Atomic Units)     !
 ------------------------------------------------------------------------
 !       B1          2.1571   -DE/DX =    0.0                           !
 !       B2          1.0776   -DE/DX =    0.0                           !
 !       B3          0.9689   -DE/DX =    0.0                           !
 !       B4          1.0768   -DE/DX =    0.0                           !
 !       B5          2.1682   -DE/DX =    0.0                           !
 !       B6          3.4587   -DE/DX =    0.0                           !
 !       B7          3.0262   -DE/DX =    0.0                           !
 !       B8          2.7409   -DE/DX =    0.0                           !
 !       B9          2.5731   -DE/DX =    0.0                           !
 !       B10         1.459    -DE/DX =    0.0                           !
 !       B11         1.3923   -DE/DX =    0.0                           !
 !       A1         87.8083   -DE/DX =    0.0                           !
 !       A2         99.3208   -DE/DX =    0.0                           !
 !       A3         85.4077   -DE/DX =    0.0                           !
 !       A4        100.5294   -DE/DX =    0.0                           !
 !       A5        109.3785   -DE/DX =    0.0                           !
 !       A6         78.3892   -DE/DX =    0.0                           !
 !       A7        100.4508   -DE/DX =    0.0                           !
 !       A8         98.6146   -DE/DX =    0.0                           !
 !       A9        113.3061   -DE/DX =    0.0                           !
 !       A10        79.3034   -DE/DX =    0.0                           !
 !       D1        -87.0328   -DE/DX =    0.0                           !
 !       D2        153.3227   -DE/DX =    0.0                           !
 !       D3         59.1647   -DE/DX =    0.0                           !
 !       D4         11.1998   -DE/DX =    0.0                           !
 !       D5          9.0956   -DE/DX =    0.0                           !
 !       D6        -19.1108   -DE/DX =    0.0                           !
 !       D7          4.6896   -DE/DX =    0.0                           !
 !       D8         28.7753   -DE/DX =    0.0                           !
 !       D9        179.4158   -DE/DX =    0.0                           !
 ------------------------------------------------------------------------
 GradGradGradGradGradGradGradGradGradGradGradGradGradGradGradGradGradGrad

 1\1\GINC-C36N14\Freq\RB3LYP\6-31++G(d,p)\C3H7O2(1-)\ROOT\13-Mar-2018\1
 \\#N Geom=AllCheck Guess=TCheck SCRF=Check GenChk RB3LYP/6-31++G(d,p) 
 Freq\\OH-BACK-TERM\\-1,1\C\O,1,B1\H,1,B2,2,A1\H,2,B3,1,A2,3,D1,0\H,1,B
 4,2,A3,4,D2,0\H,1,B5,2,A4,4,D3,0\H,1,B6,2,A5,4,D4,0\H,1,B7,2,A6,4,D5,0
 \H,1,B8,2,A7,4,D6,0\C,1,B9,2,A8,4,D7,0\C,1,B10,2,A9,10,D8,0\O,11,B11,1
 ,A10,2,D9,0\\B1=2.15707646\B2=1.07756934\B3=0.96886078\B4=1.07682208\B
 5=2.16824443\B6=3.45868591\B7=3.02616281\B8=2.74087373\B9=2.57313389\B
 10=1.45903847\B11=1.39225704\A1=87.8082921\A2=99.32082706\A3=85.407700
 24\A4=100.52939982\A5=109.37847334\A6=78.38924408\A7=100.45079991\A8=9
 8.61457048\A9=113.30610684\A10=79.30341479\D1=-87.03282568\D2=153.3226
 5079\D3=59.16474105\D4=11.19975128\D5=9.09559044\D6=-19.11078855\D7=4.
 68963971\D8=28.77525355\D9=179.41584792\\Version=EM64L-G09RevB.01\HF=-
 268.9508505\RMSD=7.137e-10\RMSF=8.371e-04\ZeroPoint=0.0943725\Thermal=
 0.1012189\Dipole=-0.1217113,-1.5402037,-1.4189292\DipoleDeriv=0.139005
 7,-0.0035105,0.0621559,-0.0358896,0.1081787,0.0068615,0.2344357,0.4429
 124,2.4932846,-0.8858464,-0.0280053,-0.0234741,-0.0306389,-0.4915474,-
 0.0609424,-0.1070366,-0.239763,-1.8092273,-0.0451403,-0.0164385,-0.010
 0892,0.0270797,0.0542506,-0.0046845,0.0019557,-0.0415444,-0.0775769,0.
 2143535,0.0129772,0.0035155,0.0281542,-0.1951436,0.0726728,0.0004271,-
 0.0143293,0.1916928,0.0369755,0.054128,-0.0005565,0.028771,-0.0568309,
 -0.0131084,-0.0285141,-0.0286617,-0.047043,-0.3618027,-0.0548791,0.051
 6778,-0.0166027,-0.0863031,0.0017816,0.0977092,0.0406901,0.0238733,0.0
 22231,-0.0662186,-0.0779587,-0.0405101,-0.0884799,-0.0741989,-0.057670
 1,-0.1559685,-0.0710053,0.0259333,-0.027096,0.068292,-0.002409,-0.0397
 085,0.039866,0.0480611,0.1785163,-0.1719536,-0.1792386,0.0481474,0.015
 0105,-0.0486721,0.0404049,0.0119621,0.0185702,-0.0007963,0.0416627,0.0
 742305,0.1188879,-0.0431386,0.117157,-0.1590484,0.0649215,-0.0359804,0
 .0289871,0.237097,0.4924764,0.0406619,0.1847816,0.0495341,0.710937,0.2
 370461,-0.1511162,-0.3117215,0.1845107,-0.5331778,-0.0786544,-0.230216
 3,-0.0759736,-0.7967093,-0.2821775,-0.0208416,0.1016788,-1.9953149\Pol
 ar=57.0288951,1.9459552,63.7646208,3.329972,5.1167225,95.4881612\PG=C0
 1 [X(C3H7O2)]\NImag=1\\0.68048549,-0.04997727,0.63631846,0.04852036,0.
 11114872,-0.01957778,-0.01626039,-0.00181277,0.00113772,0.00871912,-0.
 00109474,-0.02258322,0.00166327,-0.02595769,0.51319824,0.00087325,-0.0
 1069376,0.04008414,0.00254429,-0.07686891,0.03684542,-0.37052449,0.005
 66644,-0.01653248,0.00271061,-0.00028273,-0.00036212,0.38015103,0.0069
 0808,-0.05330655,-0.00903421,-0.00026088,0.00017711,0.00050430,-0.0025
 2959,0.04873458,-0.00494388,0.00148655,-0.00989866,0.00424020,0.000379
 13,-0.01210449,0.01562089,0.00698191,0.03476369,0.00055356,0.00143819,
 -0.00005115,-0.00142563,0.02549558,-0.00370773,-0.00025523,-0.00070159
 ,0.00083542,0.00161093,0.00023132,-0.00098783,-0.00153484,0.02563646,-
 0.49997810,0.08100537,-0.00001591,-0.00026471,0.00015727,-0.02544603,0
 .49960182,0.00007980,0.01150531,0.00367170,-0.00341732,0.07160974,-0.0
 2124339,0.00033506,0.00048359,-0.00115068,0.00388278,-0.07896893,0.024
 50817,-0.13623036,0.14285855,0.00798949,0.00079430,-0.00109228,-0.0004
 9730,-0.00716437,0.02264709,0.00167573,-0.00016554,-0.00057163,0.00064
 500,0.13228568,0.14000043,-0.28859272,-0.03107583,-0.00042334,0.000843
 92,0.00158294,-0.00364172,0.00385942,0.00043718,-0.00033977,0.00061203
 ,-0.00053118,-0.14455792,0.29616907,0.01092591,-0.01788697,-0.01297105
 ,-0.00245245,0.00691393,-0.01068549,-0.00016343,0.00095963,0.00335368,
 -0.00041401,-0.00042493,-0.00280074,-0.00849450,0.02931472,0.03728243,
 -0.01328835,0.00163674,0.00634878,0.00172658,0.00014310,-0.00257185,0.
 00037400,-0.00140051,0.00079023,-0.00060840,0.00008497,-0.00002225,0.0
 0079116,-0.00014825,0.00002646,0.29570659,-0.02224743,-0.00028611,0.00
 331329,0.00054848,0.00006580,-0.00146278,-0.00127639,-0.00250680,0.001
 13005,-0.00004872,0.00004991,-0.00014504,0.00026196,0.00084294,-0.0005
 1950,0.00284666,0.05939461,-0.02021248,0.00145596,-0.00149852,0.000573
 21,0.00015091,0.00126762,-0.00190952,-0.00302799,0.00038993,-0.0001056
 6,-0.00002554,0.00008991,0.00116533,0.00043104,0.00019350,-0.03640581,
 -0.00516687,0.05418754,-0.00102122,0.00152738,-0.00039480,0.00031634,-
 0.00005123,-0.00007913,0.00029648,0.00044765,-0.00008430,-0.00020544,-
 0.00008254,0.00000476,0.00050437,0.00046316,0.00007891,0.00064276,-0.0
 0074668,0.00036392,0.08456720,0.00519137,-0.00424731,-0.00049256,-0.00
 004120,0.00003884,-0.00045614,0.00003078,0.00035622,-0.00000829,-0.000
 00328,0.00002192,0.00000064,-0.00099513,-0.00138072,0.00041153,0.00047
 857,0.00125647,0.00039799,0.06280164,0.15668515,0.00041513,0.00156360,
 0.00025571,-0.00004789,-0.00026193,-0.00037853,0.00002266,0.00006361,-
 0.00015922,0.00005622,-0.00007322,0.00035753,-0.00002334,0.00024657,0.
 00030279,0.00071690,-0.00038299,-0.00003099,0.07242068,0.12337213,0.18
 448577,0.00017183,-0.00027802,0.00093174,-0.00034988,0.00008225,-0.000
 18251,0.00007302,0.00008139,0.00015122,0.00031037,0.00005875,-0.000275
 33,-0.00003208,-0.00002256,0.00002115,-0.00007948,-0.00081401,0.000266
 16,0.00199550,0.00554926,-0.01071922,0.05944385,-0.00065886,0.00109981
 ,0.00375791,0.00031918,0.00052035,-0.00128134,-0.00001048,-0.00013682,
 -0.00018535,-0.00036779,0.00006202,-0.00097111,0.00011827,0.00013211,-
 0.00007678,0.00067708,0.00110130,-0.00090098,0.00574759,0.00809606,-0.
 01775701,0.02172420,0.08215836,-0.00033190,0.00052431,-0.00324037,-0.0
 0012718,-0.00041667,0.00137681,-0.00004700,0.00003840,0.00017848,0.000
 09510,-0.00016981,0.00040514,0.00013892,0.00009939,0.00019296,-0.00089
 868,0.00027318,0.00041392,0.00544456,0.00875797,-0.01910665,-0.0562289
 8,-0.09150972,0.27513889,0.00072883,-0.00122988,-0.00032943,0.00068232
 ,0.00001875,0.00026481,0.00053310,0.00084037,-0.00007757,-0.00032705,-
 0.00003442,-0.00002173,0.00023456,0.00000143,0.00013858,0.00015624,0.0
 0350449,-0.00060783,-0.01067112,-0.00026568,0.00137342,-0.00457739,-0.
 00019481,0.00018276,0.33117365,0.00164042,0.00176904,-0.00054171,-0.00
 021152,0.00001016,0.00012290,-0.00072125,-0.00034356,-0.00003550,0.000
 05063,-0.00001728,-0.00006100,-0.00022369,0.00014204,-0.00007972,0.002
 77967,-0.00551834,0.00102795,-0.01963008,-0.00135220,0.00300451,-0.011
 42109,-0.00169993,0.00020798,0.01410471,0.04976098,0.00087825,-0.00011
 349,0.00112081,-0.00055629,0.00004388,-0.00019285,0.00002872,-0.000175
 08,0.00011949,0.00043709,0.00011845,-0.00014485,-0.00011802,0.00002858
 ,-0.00009402,-0.00025804,0.00055297,0.00078421,-0.02315056,-0.00066613
 ,0.00260764,0.02889610,0.00088358,-0.00191333,-0.02919253,-0.00080360,
 0.04821879,0.00650038,-0.01086901,0.00061135,-0.00031745,-0.00010881,-
 0.00050619,0.00076516,-0.00122908,-0.00036902,0.00019299,-0.00004270,0
 .00043697,-0.00129998,-0.00237976,0.00023226,-0.01452932,0.03030192,-0
 .00290800,-0.08149790,-0.05876097,-0.06539528,-0.06051726,-0.01907945,
 0.04997760,-0.30346116,-0.01629616,0.02669164,0.55123860,0.00911650,-0
 .02427677,0.00194504,-0.00013510,-0.00000564,0.00006993,0.00087472,0.0
 0176115,-0.00015012,0.00015621,0.00009256,0.00012338,-0.00108943,-0.00
 092973,0.00068921,0.00007451,-0.00205853,-0.00076590,-0.05840561,-0.14
 276152,-0.11150827,-0.01963402,-0.07843539,0.08109488,-0.01419479,-0.0
 4599888,0.00113524,0.03894633,0.47040797,0.01168097,-0.01867816,-0.000
 25639,0.00044302,0.00079561,0.00031618,0.00008471,0.00108228,0.0001004
 3,-0.00045366,-0.00035438,-0.00061705,-0.00223384,-0.00342289,0.000172
 57,0.00049971,-0.00276682,0.00361846,-0.06510902,-0.11068842,-0.172110
 35,0.05019545,0.08065226,-0.25117430,0.02580472,0.00184122,-0.04975275
 ,-0.00757820,0.01311630,0.55105396,-0.13241962,-0.09383276,-0.07418205
 ,-0.00121847,0.00281603,0.01040006,-0.01074826,-0.02670075,-0.00047649
 ,0.00085790,0.00017264,-0.00114297,0.00985091,0.01393834,-0.00221214,-
 0.26746129,0.00325053,0.02380857,0.00516855,-0.01410664,0.00099931,0.0
 0296312,-0.01145888,0.00289896,-0.01767577,0.03229369,-0.00293624,-0.1
 0425839,0.04633174,-0.00452000,0.59342967,-0.09538018,-0.23038464,-0.1
 2660437,0.00217228,0.00315406,0.01645199,0.00237449,0.00200200,-0.0028
 4407,0.00016654,0.00005443,0.00031169,-0.01613043,-0.01525208,-0.00214
 923,0.00590487,-0.04954991,-0.00456472,0.00971479,-0.02116490,0.003128
 14,0.00250555,-0.00402413,-0.00226182,-0.00171595,0.00026333,0.0000183
 7,0.04703975,-0.16053738,-0.00194544,0.05617667,0.56374939,-0.04154743
 ,-0.06898849,0.00230222,0.00055442,0.00056814,-0.00740295,0.00183771,-
 0.00165962,-0.00667981,-0.00064700,0.00061828,-0.00276344,-0.00319806,
 0.00063654,-0.00628795,0.01611265,-0.00491074,-0.04836399,0.01039451,-
 0.02344694,0.00181044,-0.01291308,0.02748530,-0.00439209,0.00332659,-0
 .00370810,-0.00064881,-0.00328514,-0.00265431,-0.07185358,-0.01248171,
 0.01342790,0.35771668,-0.01869566,0.00487241,0.02595048,0.00462253,0.0
 0003176,-0.00617558,0.00378896,0.00189784,-0.01736243,-0.00053845,0.00
 000909,-0.00050478,0.00043135,-0.00289007,0.00231325,-0.00343048,-0.01
 558081,0.03597211,-0.00009551,0.00012129,0.00018141,0.00059839,0.00318
 395,-0.00110417,0.00320379,-0.00236533,-0.00072011,0.00718432,-0.00204
 105,-0.00881386,-0.07848835,-0.01282838,0.04184654,0.08141911,0.006270
 35,-0.01452215,0.04745529,0.00016610,0.00455847,-0.00897450,-0.0004683
 5,-0.00033205,-0.00734877,-0.00039998,0.00075324,-0.00335709,-0.001225
 36,0.00355373,-0.01715188,-0.01307740,-0.00279134,0.01098814,-0.001786
 08,0.00445199,-0.00139512,0.00216830,-0.00887374,0.00336191,-0.0008342
 1,0.00298464,-0.00102279,-0.00752205,-0.01725783,0.04036844,-0.0088806
 2,-0.08831016,0.06263205,0.02558930,0.11578520,-0.00633799,-0.01132357
 ,0.00000819,-0.00289172,-0.00457710,-0.02788248,0.00108479,0.00378315,
 -0.00891284,0.00007260,-0.00034771,-0.00031230,0.00295059,0.00225295,-
 0.00865867,0.01566190,0.01008524,-0.01105158,0.00011047,0.00281821,0.0
 0196587,-0.00014272,-0.00009676,0.00212054,-0.00086180,-0.00097494,-0.
 00010433,0.00209202,0.01690462,-0.00949717,0.05984470,0.10703157,-0.21
 343670,-0.07158285,-0.12555567,0.27576148\\0.00026705,0.00023302,-0.00
 500000,-0.00026705,-0.00016240,0.,0.,-0.00007062,0.,0.,0.,0.,0.,0.,0.,
 0.,0.,0.,0.,0.,0.,0.,-0.00000002,0.00000002,0.,0.,0.,0.00000001,0.0000
 0003,-0.00000002,0.,0.00000001,0.,0.,0.,-0.00000001\\\@


 We're simply so accustomed to the marvels of everyday thought
 that we never wonder about it.
 -- Marvin Minsky in "Why people think computers are smart"
 Job cpu time:  0 days  0 hours  6 minutes 39.6 seconds.
 File lengths (MBytes):  RWF=   1280 Int=      0 D2E=      0 Chk=     32 Scr=     32
 Normal termination of Gaussian 09 at Tue Mar 13 16:44:56 2018.
