 Entering Gaussian System, Link 0=g09
 Input=H2O-mid-field.gjf
 Output=H2O-mid-field.log
 Initial command:
 /share/home/zxchen/g09/l1.exe /scratch/zxchen/Gau-31853.inp -scrdir=/scratch/zxchen/
 Entering Link 1 = /share/home/zxchen/g09/l1.exe PID=     31854.
  
 Copyright (c) 1988,1990,1992,1993,1995,1998,2003,2009,2010,
            Gaussian, Inc.  All Rights Reserved.
  
 This is part of the Gaussian(R) 09 program.  It is based on
 the Gaussian(R) 03 system (copyright 2003, Gaussian, Inc.),
 the Gaussian(R) 98 system (copyright 1998, Gaussian, Inc.),
 the Gaussian(R) 94 system (copyright 1995, Gaussian, Inc.),
 the Gaussian 92(TM) system (copyright 1992, Gaussian, Inc.),
 the Gaussian 90(TM) system (copyright 1990, Gaussian, Inc.),
 the Gaussian 88(TM) system (copyright 1988, Gaussian, Inc.),
 the Gaussian 86(TM) system (copyright 1986, Carnegie Mellon
 University), and the Gaussian 82(TM) system (copyright 1983,
 Carnegie Mellon University). Gaussian is a federally registered
 trademark of Gaussian, Inc.
  
 This software contains proprietary and confidential information,
 including trade secrets, belonging to Gaussian, Inc.
  
 This software is provided under written license and may be
 used, copied, transmitted, or stored only in accord with that
 written license.
  
 The following legend is applicable only to US Government
 contracts under FAR:
  
                    RESTRICTED RIGHTS LEGEND
  
 Use, reproduction and disclosure by the US Government is
 subject to restrictions as set forth in subparagraphs (a)
 and (c) of the Commercial Computer Software - Restricted
 Rights clause in FAR 52.227-19.
  
 Gaussian, Inc.
 340 Quinnipiac St., Bldg. 40, Wallingford CT 06492
  
  
 ---------------------------------------------------------------
 Warning -- This program may not be used in any manner that
 competes with the business of Gaussian, Inc. or will provide
 assistance to any competitor of Gaussian, Inc.  The licensee
 of this program is prohibited from giving any competitor of
 Gaussian, Inc. access to this program.  By using this program,
 the user acknowledges that Gaussian, Inc. is engaged in the
 business of creating and licensing software in the field of
 computational chemistry and represents and warrants to the
 licensee that it is not a competitor of Gaussian, Inc. and that
 it will not use this program in any manner prohibited above.
 ---------------------------------------------------------------
  

 Cite this work as:
 Gaussian 09, Revision B.01,
 M. J. Frisch, G. W. Trucks, H. B. Schlegel, G. E. Scuseria, 
 M. A. Robb, J. R. Cheeseman, G. Scalmani, V. Barone, B. Mennucci, 
 G. A. Petersson, H. Nakatsuji, M. Caricato, X. Li, H. P. Hratchian, 
 A. F. Izmaylov, J. Bloino, G. Zheng, J. L. Sonnenberg, M. Hada, 
 M. Ehara, K. Toyota, R. Fukuda, J. Hasegawa, M. Ishida, T. Nakajima, 
 Y. Honda, O. Kitao, H. Nakai, T. Vreven, J. A. Montgomery, Jr., 
 J. E. Peralta, F. Ogliaro, M. Bearpark, J. J. Heyd, E. Brothers, 
 K. N. Kudin, V. N. Staroverov, T. Keith, R. Kobayashi, J. Normand, 
 K. Raghavachari, A. Rendell, J. C. Burant, S. S. Iyengar, J. Tomasi, 
 M. Cossi, N. Rega, J. M. Millam, M. Klene, J. E. Knox, J. B. Cross, 
 V. Bakken, C. Adamo, J. Jaramillo, R. Gomperts, R. E. Stratmann, 
 O. Yazyev, A. J. Austin, R. Cammi, C. Pomelli, J. W. Ochterski, 
 R. L. Martin, K. Morokuma, V. G. Zakrzewski, G. A. Voth, 
 P. Salvador, J. J. Dannenberg, S. Dapprich, A. D. Daniels, 
 O. Farkas, J. B. Foresman, J. V. Ortiz, J. Cioslowski, 
 and D. J. Fox, Gaussian, Inc., Wallingford CT, 2010.
 
 ******************************************
 Gaussian 09:  EM64L-G09RevB.01 12-Aug-2010
                13-Mar-2018 
 ******************************************
 %chk=H2O-mid-field.chk
 %nprocshared=24
 Will use up to   24 processors via shared memory.
 ----------------------------------------------------------------------
 # field=z+25 nosymm opt=(ts,calcall,z-matrix,noeigen,maxcycle=300) fre
 q rb3lyp/6-31++g(d,p)
 ----------------------------------------------------------------------
 1/5=1,6=300,10=4,11=1,14=-1,18=40,26=3,38=1/1,3;
 2/12=2,15=1,17=6,18=5,29=3,40=1/2;
 3/5=1,6=6,7=1111,11=2,14=3,15=25,16=1,25=1,30=1,71=2,74=-5,116=1/1,2,3;
 4//1;
 5/5=2,38=5/2;
 8/6=4,10=90,11=11/1;
 11/6=1,8=1,9=11,15=111,16=1,31=1/1,2,10;
 10/6=1,31=1/2;
 6/7=2,8=2,9=2,10=2,18=1,28=1/1;
 7/10=1,25=1,30=1/1,2,3,16;
 1/5=1,6=300,10=4,11=1,14=-1,18=40/3(3);
 2/15=1,29=3/2;
 7/8=1,9=1,25=1,30=1,44=-1/16;
 99//99;
 2/15=1,29=3/2;
 3/5=1,6=6,7=1111,11=2,14=3,15=25,16=1,25=1,30=1,71=2,74=-5,116=1/1,2,3;
 4/5=5,16=3/1;
 5/5=2,38=5/2;
 8/6=4,10=90,11=11/1;
 11/6=1,8=1,9=11,15=111,16=1,31=1/1,2,10;
 10/6=1,31=1/2;
 7/10=1,25=1,30=1/1,2,3,16;
 1/5=1,6=300,10=4,11=1,14=-1,18=40/3(-8);
 2/15=1,29=3/2;
 6/7=2,8=2,9=2,10=2,18=1,19=2,28=1/1;
 7/8=1,9=1,25=1,30=1,44=-1/16;
 99//99;
 -----------
 OH-BACK-MID
 -----------
 Symbolic Z-matrix:
 Charge =  0 Multiplicity = 1
 C
 O                    1    B1
 H                    1    B2       2    A1
 H                    1    B3       2    A2       3    D1       0
 H                    1    B4       2    A3       4    D2       0
 H                    1    B5       2    A4       5    D3       0
 H                    1    B6       2    A5       5    D4       0
 H                    2    B7       1    A6       5    D5       0
 H                    1    B8       2    A7       8    D6       0
 H                    2    B9       1    A8       5    D7       0
 C                    1    B10      2    A9       10   D8       0
 C                    1    B11      11   A10      2    D9       0
 O                    11   B12      1    A11      12   D10      0
       Variables:
  B1                    2.28585                  
  B2                    2.13501                  
  B3                    2.13864                  
  B4                    1.08765                  
  B5                    2.0847                   
  B6                    2.13165                  
  B7                    1.68206                  
  B8                    2.14304                  
  B9                    0.97006                  
  B10                   1.52313                  
  B11                   1.47437                  
  B12                   1.41335                  
  A1                  113.76259                  
  A2                  111.51153                  
  A3                   92.49875                  
  A4                  130.54047                  
  A5                   87.20981                  
  A6                   69.76053                  
  A7                   85.75205                  
  A8                   98.69922                  
  A9                   98.59051                  
  A10                 120.65473                  
  A11                 113.22423                  
  D1                   53.55823                  
  D2                   91.05254                  
  D3                  117.36126                  
  D4                  143.8213                   
  D5                  119.98006                  
  D6                 -145.96742                  
  D7                   10.26368                  
  D8                 -108.06171                  
  D9                  107.18663                  
  D10                 104.23628                  
 

 GradGradGradGradGradGradGradGradGradGradGradGradGradGradGradGradGradGrad
 Berny optimization.
 Initialization pass.
                       ----------------------------
                       !    Initial Parameters    !
                       ! (Angstroms and Degrees)  !
 ----------------------                            ----------------------
 !      Name          Value   Derivative information (Atomic Units)     !
 ------------------------------------------------------------------------
 !       B1          2.2858   calculate D2E/DX2 analytically            !
 !       B2          2.135    calculate D2E/DX2 analytically            !
 !       B3          2.1386   calculate D2E/DX2 analytically            !
 !       B4          1.0877   calculate D2E/DX2 analytically            !
 !       B5          2.0847   calculate D2E/DX2 analytically            !
 !       B6          2.1317   calculate D2E/DX2 analytically            !
 !       B7          1.6821   calculate D2E/DX2 analytically            !
 !       B8          2.143    calculate D2E/DX2 analytically            !
 !       B9          0.9701   calculate D2E/DX2 analytically            !
 !       B10         1.5231   calculate D2E/DX2 analytically            !
 !       B11         1.4744   calculate D2E/DX2 analytically            !
 !       B12         1.4134   calculate D2E/DX2 analytically            !
 !       A1        113.7626   calculate D2E/DX2 analytically            !
 !       A2        111.5115   calculate D2E/DX2 analytically            !
 !       A3         92.4987   calculate D2E/DX2 analytically            !
 !       A4        130.5405   calculate D2E/DX2 analytically            !
 !       A5         87.2098   calculate D2E/DX2 analytically            !
 !       A6         69.7605   calculate D2E/DX2 analytically            !
 !       A7         85.7521   calculate D2E/DX2 analytically            !
 !       A8         98.6992   calculate D2E/DX2 analytically            !
 !       A9         98.5905   calculate D2E/DX2 analytically            !
 !       A10       120.6547   calculate D2E/DX2 analytically            !
 !       A11       113.2242   calculate D2E/DX2 analytically            !
 !       D1         53.5582   calculate D2E/DX2 analytically            !
 !       D2         91.0525   calculate D2E/DX2 analytically            !
 !       D3        117.3613   calculate D2E/DX2 analytically            !
 !       D4        143.8213   calculate D2E/DX2 analytically            !
 !       D5        119.9801   calculate D2E/DX2 analytically            !
 !       D6       -145.9674   calculate D2E/DX2 analytically            !
 !       D7         10.2637   calculate D2E/DX2 analytically            !
 !       D8       -108.0617   calculate D2E/DX2 analytically            !
 !       D9        107.1866   calculate D2E/DX2 analytically            !
 !       D10       104.2363   calculate D2E/DX2 analytically            !
 ------------------------------------------------------------------------
 Trust Radius=3.00D-01 FncErr=1.00D-07 GrdErr=1.00D-06
 Number of steps in this run=    100 maximum allowed number of steps=    100.
 Search for a saddle point of order  1.
 GradGradGradGradGradGradGradGradGradGradGradGradGradGradGradGradGradGrad

 ---------------------------------------------------------------------------------------------------
                            Z-MATRIX (ANGSTROMS AND DEGREES)
   CD    Cent   Atom    N1       Length/X        N2       Alpha/Y        N3        Beta/Z          J
 ---------------------------------------------------------------------------------------------------
      1      1  C 
      2      2  O        1   2.285847(     1)
      3      3  H        1   2.135011(     2)      2  113.763(    13)
      4      4  H        1   2.138636(     3)      2  111.512(    14)      3   53.558(    24)      0
      5      5  H        1   1.087652(     4)      2   92.499(    15)      4   91.053(    25)      0
      6      6  H        1   2.084696(     5)      2  130.540(    16)      5  117.361(    26)      0
      7      7  H        1   2.131652(     6)      2   87.210(    17)      5  143.821(    27)      0
      8      8  H        2   1.682055(     7)      1   69.761(    18)      5  119.980(    28)      0
      9      9  H        1   2.143041(     8)      2   85.752(    19)      8 -145.967(    29)      0
     10     10  H        2   0.970059(     9)      1   98.699(    20)      5   10.264(    30)      0
     11     11  C        1   1.523127(    10)      2   98.591(    21)     10 -108.062(    31)      0
     12     12  C        1   1.474372(    11)     11  120.655(    22)      2  107.187(    32)      0
     13     13  O       11   1.413354(    12)      1  113.224(    23)     12  104.236(    33)      0
 ---------------------------------------------------------------------------------------------------
                         Z-Matrix orientation:                         
 ---------------------------------------------------------------------
 Center     Atomic      Atomic             Coordinates (Angstroms)
 Number     Number       Type             X           Y           Z
 ---------------------------------------------------------------------
      1          6           0        0.000000    0.000000    0.000000
      2          8           0        0.000000    0.000000    2.285847
      3          1           0        1.954011    0.000000   -0.860298
      4          1           0        1.181873   -1.600609   -0.784213
      5          1           0       -0.885851   -0.629291   -0.047419
      6          1           0       -0.221252    1.568733   -1.355021
      7          1           0        0.673187    2.019899    0.103766
      8          1           0        1.434601   -0.657742    1.703949
      9          1           0       -1.111462    1.825398    0.158741
     10          1           0       -0.670274   -0.685727    2.432566
     11          6           0        1.350314   -0.666938   -0.227512
     12          6           0       -0.180037    1.440364   -0.258283
     13          8           0        2.047730   -0.936840    0.971793
 ---------------------------------------------------------------------
                    Distance matrix (angstroms):
                    1          2          3          4          5
     1  C    0.000000
     2  O    2.285847   0.000000
     3  H    2.135011   3.703564   0.000000
     4  H    2.138636   3.658421   1.778745   0.000000
     5  H    1.087652   2.573882   3.020198   2.400376   0.000000
     6  H    2.084696   3.970617   2.727168   3.512735   2.642503
     7  H    2.131652   3.048713   2.578744   3.762359   3.077607
     8  H    2.322530   1.682055   2.697735   2.672793   2.907335
     9  H    2.143041   3.015295   3.710477   4.229193   2.473641
    10  H    2.614740   0.970059   4.266151   3.822973   2.489977
    11  C    1.523127   2.930039   1.099852   1.100014   2.243721
    12  C    1.474372   2.929106   2.644094   3.373265   2.196841
    13  O    2.452600   2.607222   2.059857   2.067330   3.120781
                    6          7          8          9         10
     6  H    0.000000
     7  H    1.769642   0.000000
     8  H    4.129932   3.210934   0.000000
     9  H    1.774775   1.796058   3.877640   0.000000
    10  H    4.430579   3.814264   2.227592   3.416237   0.000000
    11  C    2.956234   2.790580   1.933321   3.524382   3.340530
    12  C    1.104994   1.093129   3.295369   1.090740   3.464284
    13  O    4.103686   3.374188   0.994925   4.274518   3.095878
                   11         12         13
    11  C    0.000000
    12  C    2.604543   0.000000
    13  O    1.413354   3.482403   0.000000
 Symmetry turned off by external request.
 Stoichiometry    C3H8O2
 Framework group  C1[X(C3H8O2)]
 Deg. of freedom    33
 Full point group                 C1      NOp   1
 Rotational constants (GHZ):      5.2202693      4.0323147      2.6016518
 Standard basis: 6-31++G(d,p) (6D, 7F)
 The following finite field(s) will be applied:
 An electric field of              0.0000  0.0000  0.0025
 Integral buffers will be    131072 words long.
 Raffenetti 2 integral format.
 Two-electron integral symmetry is turned off.
   143 basis functions,   224 primitive gaussians,   143 cartesian basis functions
    21 alpha electrons       21 beta electrons
       nuclear repulsion energy       184.1278615626 Hartrees.
 NAtoms=   13 NActive=   13 NUniq=   13 SFac= 1.00D+00 NAtFMM=   50 NAOKFM=F Big=F
 One-electron integrals computed using PRISM.
 PrsmSu:  requested number of processors reduced to:  10 ShMem   1 Linda.
 NBasis=   143 RedAO= T  NBF=   143
 NBsUse=   143 1.00D-06 NBFU=   143
 The nuclear repulsion energy is now       184.2435998285 hartrees.
 Harris functional with IExCor=  402 diagonalized for initial guess.
 ExpMin= 3.60D-02 ExpMax= 5.48D+03 ExpMxC= 8.25D+02 IAcc=3 IRadAn=         0 AccDes= 0.00D+00
 HarFok:  IExCor=  402 AccDes= 0.00D+00 IRadAn=         0 IDoV= 1
 ScaDFX=  1.000000  1.000000  1.000000  1.000000
 FoFCou: FMM=F IPFlag=           0 FMFlag=      100000 FMFlg1=           0
         NFxFlg=           0 DoJE=T BraDBF=F KetDBF=T FulRan=T
         Omega=  0.000000  0.000000  1.000000  0.000000  0.000000 ICntrl=     500 IOpCl=  0
         NMat0=    1 NMatS0=    1 NMatT0=    0 NMatD0=    1 NMtDS0=    0 NMtDT0=    0
         I1Cent=           4 NGrid=           0.
 Symmetry not used in FoFCou.
 Requested convergence on RMS density matrix=1.00D-08 within 128 cycles.
 Requested convergence on MAX density matrix=1.00D-06.
 Requested convergence on             energy=1.00D-06.
 No special actions if energy rises.
 EnCoef did     2 forward-backward iterations
 SCF Done:  E(RB3LYP) =  -269.512076302     A.U. after   15 cycles
             Convg  =    0.3416D-08             -V/T =  2.0103
 Range of M.O.s used for correlation:     1   143
 NBasis=   143 NAE=    21 NBE=    21 NFC=     0 NFV=     0
 NROrb=    143 NOA=    21 NOB=    21 NVA=   122 NVB=   122

 **** Warning!!: The largest alpha MO coefficient is  0.46215617D+02

 PrsmSu:  requested number of processors reduced to:  10 ShMem   1 Linda.
 PrsmSu:  requested number of processors reduced to:  17 ShMem   1 Linda.
 Symmetrizing basis deriv contribution to polar:
 IMax=3 JMax=2 DiffMx= 0.00D+00
 G2DrvN: will do     3 centers at a time, making    5 passes doing MaxLOS=2.
 Estimated number of processors is:   15
 Calling FoFCou, ICntrl=  3107 FMM=F I1Cent=   0 AccDes= 0.00D+00.
 CoulSu:  requested number of processors reduced to:  15 ShMem   1 Linda.
 Calling FoFCou, ICntrl=  3107 FMM=F I1Cent=   0 AccDes= 0.00D+00.
 CoulSu:  requested number of processors reduced to:  15 ShMem   1 Linda.
 Calling FoFCou, ICntrl=  3107 FMM=F I1Cent=   0 AccDes= 0.00D+00.
 CoulSu:  requested number of processors reduced to:  15 ShMem   1 Linda.
 Calling FoFCou, ICntrl=  3107 FMM=F I1Cent=   0 AccDes= 0.00D+00.
 CoulSu:  requested number of processors reduced to:  15 ShMem   1 Linda.
 Calling FoFCou, ICntrl=  3107 FMM=F I1Cent=   0 AccDes= 0.00D+00.
 CoulSu:  requested number of processors reduced to:  15 ShMem   1 Linda.
 FoFDir/FoFCou used for L=0 through L=2.
 End of G2Drv Frequency-dependent properties file   721 does not exist.
 End of G2Drv Frequency-dependent properties file   722 does not exist.
          IDoAtm=1111111111111
          Differentiating once with respect to electric field.
                with respect to dipole field.
          Differentiating once with respect to nuclear coordinates.
 PrRfSu:  requested number of processors reduced to:  16 ShMem   1 Linda.
 CalDSu:  requested number of processors reduced to:  22 ShMem   1 Linda.
 PrRfSu:  requested number of processors reduced to:  16 ShMem   1 Linda.
 CalDSu:  requested number of processors reduced to:  22 ShMem   1 Linda.
          There are    42 degrees of freedom in the 1st order CPHF.  IDoFFX=5.
     42 vectors produced by pass  0 Test12= 6.10D-15 2.38D-09 XBig12= 1.34D+02 1.01D+01.
 AX will form    21 AO Fock derivatives at one time.
 PrRfSu:  requested number of processors reduced to:  16 ShMem   1 Linda.
 CalDSu:  requested number of processors reduced to:  22 ShMem   1 Linda.
 PrRfSu:  requested number of processors reduced to:  16 ShMem   1 Linda.
 CalDSu:  requested number of processors reduced to:  22 ShMem   1 Linda.
     39 vectors produced by pass  1 Test12= 6.10D-15 2.38D-09 XBig12= 5.83D+01 1.42D+00.
 PrRfSu:  requested number of processors reduced to:  15 ShMem   1 Linda.
 CalDSu:  requested number of processors reduced to:  19 ShMem   1 Linda.
     39 vectors produced by pass  2 Test12= 6.10D-15 2.38D-09 XBig12= 3.25D-01 1.31D-01.
 PrRfSu:  requested number of processors reduced to:  15 ShMem   1 Linda.
 CalDSu:  requested number of processors reduced to:  19 ShMem   1 Linda.
     39 vectors produced by pass  3 Test12= 6.10D-15 2.38D-09 XBig12= 1.20D-03 5.57D-03.
 PrRfSu:  requested number of processors reduced to:  15 ShMem   1 Linda.
 CalDSu:  requested number of processors reduced to:  19 ShMem   1 Linda.
     39 vectors produced by pass  4 Test12= 6.10D-15 2.38D-09 XBig12= 1.92D-06 1.63D-04.
 PrRfSu:  requested number of processors reduced to:  15 ShMem   1 Linda.
 CalDSu:  requested number of processors reduced to:  19 ShMem   1 Linda.
     27 vectors produced by pass  5 Test12= 6.10D-15 2.38D-09 XBig12= 1.42D-09 3.52D-06.
 PrRfSu:  requested number of processors reduced to:  16 ShMem   1 Linda.
 CalDSu:  requested number of processors reduced to:  21 ShMem   1 Linda.
      3 vectors produced by pass  6 Test12= 6.10D-15 2.38D-09 XBig12= 9.13D-13 1.11D-07.
      3 vectors produced by pass  7 Test12= 6.10D-15 2.38D-09 XBig12= 9.11D-15 2.33D-08.
 Inverted reduced A of dimension   231 with in-core refinement.
 Isotropic polarizability for W=    0.000000       56.90 Bohr**3.
 End of Minotr Frequency-dependent properties file   721 does not exist.
 End of Minotr Frequency-dependent properties file   722 does not exist.

 **********************************************************************

            Population analysis using the SCF density.

 **********************************************************************

 Alpha  occ. eigenvalues --  -19.14362 -19.14181 -10.30846 -10.25981 -10.22548
 Alpha  occ. eigenvalues --   -1.01756  -0.93155  -0.82773  -0.71330  -0.61911
 Alpha  occ. eigenvalues --   -0.52489  -0.48872  -0.46750  -0.44487  -0.42577
 Alpha  occ. eigenvalues --   -0.41856  -0.40766  -0.34829  -0.29498  -0.27815
 Alpha  occ. eigenvalues --   -0.26975
 Alpha virt. eigenvalues --   -0.12005  -0.02115  -0.00132   0.00956   0.01765
 Alpha virt. eigenvalues --    0.03427   0.04187   0.04680   0.05591   0.07255
 Alpha virt. eigenvalues --    0.08443   0.09124   0.10427   0.11292   0.12213
 Alpha virt. eigenvalues --    0.12770   0.13542   0.14200   0.14747   0.15525
 Alpha virt. eigenvalues --    0.17902   0.18021   0.18712   0.20211   0.20929
 Alpha virt. eigenvalues --    0.21667   0.21809   0.24790   0.25663   0.26819
 Alpha virt. eigenvalues --    0.28139   0.29441   0.31421   0.32332   0.33928
 Alpha virt. eigenvalues --    0.33976   0.35451   0.38957   0.40028   0.43892
 Alpha virt. eigenvalues --    0.59285   0.66290   0.68885   0.70300   0.72140
 Alpha virt. eigenvalues --    0.73362   0.76125   0.78110   0.83325   0.90309
 Alpha virt. eigenvalues --    0.93151   0.94033   0.97089   1.01269   1.02090
 Alpha virt. eigenvalues --    1.05531   1.11172   1.13827   1.16839   1.19113
 Alpha virt. eigenvalues --    1.23647   1.26542   1.29434   1.30562   1.31413
 Alpha virt. eigenvalues --    1.34723   1.43311   1.44243   1.48252   1.58212
 Alpha virt. eigenvalues --    1.61399   1.63497   1.65507   1.67092   1.70807
 Alpha virt. eigenvalues --    1.75030   1.79713   1.86603   1.89835   1.93126
 Alpha virt. eigenvalues --    1.94137   1.99496   2.00081   2.04395   2.05994
 Alpha virt. eigenvalues --    2.09630   2.13646   2.15029   2.22949   2.29116
 Alpha virt. eigenvalues --    2.33214   2.37148   2.43992   2.47047   2.53114
 Alpha virt. eigenvalues --    2.54405   2.55411   2.59847   2.62811   2.67367
 Alpha virt. eigenvalues --    2.69149   2.69587   2.76014   2.80280   2.82073
 Alpha virt. eigenvalues --    2.87253   2.87753   2.93112   3.04345   3.22116
 Alpha virt. eigenvalues --    3.27968   3.37174   3.41890   3.42440   3.45006
 Alpha virt. eigenvalues --    3.47231   3.63356   4.19579   4.29679   4.35567
 Alpha virt. eigenvalues --    4.52212   4.63383
          Condensed to atoms (all electrons):
              1          2          3          4          5          6
     1  C    6.651193   0.324251  -0.118814   0.020831   0.261294   0.033935
     2  O    0.324251   8.398631   0.001464  -0.003966  -0.010915   0.003940
     3  H   -0.118814   0.001464   0.648873  -0.108868   0.019537  -0.008233
     4  H    0.020831  -0.003966  -0.108868   0.699782  -0.035153   0.005366
     5  H    0.261294  -0.010915   0.019537  -0.035153   0.566305  -0.006517
     6  H    0.033935   0.003940  -0.008233   0.005366  -0.006517   0.518857
     7  H   -0.133831  -0.001055  -0.002293   0.002151   0.000441  -0.022676
     8  H   -0.035938   0.065197   0.009131  -0.004776   0.008256  -0.001750
     9  H   -0.082712   0.001601   0.003987  -0.003280  -0.005011  -0.021495
    10  H   -0.028579   0.207888  -0.003708   0.005258  -0.009924   0.000124
    11  C   -0.115086  -0.133744   0.385641   0.426271  -0.020598  -0.015308
    12  C   -0.862119  -0.067406   0.055645  -0.057704   0.013228   0.330258
    13  O   -0.076111  -0.057205  -0.059495  -0.080641   0.007374   0.002176
              7          8          9         10         11         12
     1  C   -0.133831  -0.035938  -0.082712  -0.028579  -0.115086  -0.862119
     2  O   -0.001055   0.065197   0.001601   0.207888  -0.133744  -0.067406
     3  H   -0.002293   0.009131   0.003987  -0.003708   0.385641   0.055645
     4  H    0.002151  -0.004776  -0.003280   0.005258   0.426271  -0.057704
     5  H    0.000441   0.008256  -0.005011  -0.009924  -0.020598   0.013228
     6  H   -0.022676  -0.001750  -0.021495   0.000124  -0.015308   0.330258
     7  H    0.475741   0.003624  -0.013977   0.000924   0.014554   0.471006
     8  H    0.003624   0.332128  -0.000128  -0.012610  -0.048947   0.017644
     9  H   -0.013977  -0.000128   0.492484  -0.000499   0.014934   0.427771
    10  H    0.000924  -0.012610  -0.000499   0.480573   0.019057   0.010970
    11  C    0.014554  -0.048947   0.014934   0.019057   5.231509   0.083416
    12  C    0.471006   0.017644   0.427771   0.010970   0.083416   6.201198
    13  O    0.000891   0.233297  -0.000850   0.004904   0.323724  -0.028417
             13
     1  C   -0.076111
     2  O   -0.057205
     3  H   -0.059495
     4  H   -0.080641
     5  H    0.007374
     6  H    0.002176
     7  H    0.000891
     8  H    0.233297
     9  H   -0.000850
    10  H    0.004904
    11  C    0.323724
    12  C   -0.028417
    13  O    8.259491
 Mulliken atomic charges:
              1
     1  C    0.161687
     2  O   -0.728679
     3  H    0.177134
     4  H    0.134730
     5  H    0.211682
     6  H    0.181322
     7  H    0.204500
     8  H    0.434873
     9  H    0.187176
    10  H    0.325623
    11  C   -0.165423
    12  C   -0.595489
    13  O   -0.529137
 Sum of Mulliken atomic charges =   0.00000
 Mulliken charges with hydrogens summed into heavy atoms:
              1
     1  C    0.373370
     2  O   -0.403056
    11  C    0.146441
    12  C   -0.022492
    13  O   -0.094264
 Sum of Mulliken charges with hydrogens summed into heavy atoms =   0.00000
 APT atomic charges:
              1
     1  C    0.595091
     2  O   -0.727385
     3  H   -0.045038
     4  H   -0.051975
     5  H   -0.035263
     6  H    0.053237
     7  H    0.049557
     8  H    0.369374
     9  H    0.041961
    10  H    0.174836
    11  C    0.365367
    12  C   -0.168045
    13  O   -0.621716
 Sum of APT charges=   0.00000
 APT Atomic charges with hydrogens summed into heavy atoms:
              1
     1  C    0.559828
     2  O   -0.552549
     3  H    0.000000
     4  H    0.000000
     5  H    0.000000
     6  H    0.000000
     7  H    0.000000
     8  H    0.000000
     9  H    0.000000
    10  H    0.000000
    11  C    0.268354
    12  C   -0.023290
    13  O   -0.252342
 Sum of APT charges=   0.00000
 Electronic spatial extent (au):  <R**2>=            626.3323
 Charge=              0.0000 electrons
 Dipole moment (field-independent basis, Debye):
    X=             -3.0491    Y=              0.5626    Z=             -4.5652  Tot=              5.5186
 Quadrupole moment (field-independent basis, Debye-Ang):
   XX=            -37.6208   YY=            -31.2232   ZZ=            -39.1198
   XY=              4.1216   XZ=             -4.7922   YZ=             -2.0522
 Traceless Quadrupole moment (field-independent basis, Debye-Ang):
   XX=             -1.6328   YY=              4.7647   ZZ=             -3.1319
   XY=              4.1216   XZ=             -4.7922   YZ=             -2.0522
 Octapole moment (field-independent basis, Debye-Ang**2):
  XXX=            -77.8235  YYY=              4.4439  ZZZ=            -69.5509  XYY=            -24.2069
  XXY=              8.1147  XXZ=            -24.2406  XZZ=            -24.3141  YZZ=             -7.4511
  YYZ=            -19.5491  XYZ=              6.1393
 Hexadecapole moment (field-independent basis, Debye-Ang**3):
 XXXX=           -326.3839 YYYY=           -198.9033 ZZZZ=           -346.4721 XXXY=             78.4792
 XXXZ=            -51.1944 YYYX=             64.4258 YYYZ=             28.5819 ZZZX=            -34.9853
 ZZZY=             -0.1053 XXYY=            -87.0689 XXZZ=            -97.2509 YYZZ=            -83.3608
 XXYZ=             16.3692 YYXZ=            -15.7446 ZZXY=             26.3727
 N-N= 1.842435998285D+02 E-N=-9.980677326048D+02  KE= 2.667720750306D+02
  Exact polarizability:  49.181  -3.967  49.114  -3.225  -5.354  72.400
 Approx polarizability:  64.426  -1.830  62.474  -3.623  -6.005 130.747
 PrsmSu:  requested number of processors reduced to:  10 ShMem   1 Linda.
 PrsmSu:  requested number of processors reduced to:  10 ShMem   1 Linda.
 Calling FoFJK, ICntrl=    100127 FMM=F ISym2X=0 I1Cent= 0 IOpClX= 0 NMat=1 NMatS=1 NMatT=0.
 CoulSu:  requested number of processors reduced to:  10 ShMem   1 Linda.
 CalDSu:  requested number of processors reduced to:  23 ShMem   1 Linda.
 -------------------------------------------------------------------
 Center     Atomic                   Forces (Hartrees/Bohr)
 Number     Number              X              Y              Z
 -------------------------------------------------------------------
      1        6           0.001259489   -0.001160938    0.045580320
      2        8          -0.001031196    0.000497846   -0.045901754
      3        1           0.000199378    0.000204363   -0.000170347
      4        1          -0.000013474   -0.000307870   -0.000122084
      5        1           0.000031478   -0.000000509   -0.000148434
      6        1          -0.000012854    0.000173603    0.000002145
      7        1          -0.000141266    0.000042068    0.000285468
      8        1          -0.000091244    0.000058350    0.000669017
      9        1           0.000137083    0.000069699    0.000267679
     10        1          -0.000141347   -0.000134344    0.000501344
     11        6          -0.000047404    0.000044052    0.001447118
     12        6          -0.000041338    0.000481256   -0.000608920
     13        8          -0.000107305    0.000032425   -0.001801553
 -------------------------------------------------------------------
 Cartesian Forces:  Max     0.045901754 RMS     0.010372502
 -----------------------------------------------------------------------------------------------
                       Internal Coordinate Forces (Hartree/Bohr or radian)
  Cent   Atom   N1       Length/X         N2         Alpha/Y        N3         Beta/Z          J
 -----------------------------------------------------------------------------------------------
      1  C 
      2  O        1  -0.044731(     1)
      3  H        1   0.000251(     2)      2   0.000305(    13)
      4  H        1   0.000268(     3)      2   0.000104(    14)      3   0.000782(    24)     0
      5  H        1  -0.000019(     4)      2   0.000307(    15)      4   0.000054(    25)     0
      6  H        1   0.000131(     5)      2  -0.000451(    16)      5   0.000034(    26)     0
      7  H        1   0.000009(     6)      2  -0.001150(    17)      5  -0.000593(    27)     0
      8  H        2  -0.000332(     7)      1   0.001877(    18)      5  -0.000574(    28)     0
      9  H        1   0.000008(     8)      2  -0.001085(    19)      8   0.000619(    29)     0
     10  H        2   0.000268(     9)      1   0.000854(    20)      5  -0.000076(    30)     0
     11  C        1  -0.000118(    10)      2   0.002570(    21)     10   0.000063(    31)     0
     12  C        1   0.000582(    11)     11  -0.000454(    22)      2   0.001354(    32)     0
     13  O       11  -0.001588(    12)      1   0.002284(    23)     12  -0.000182(    33)     0
 -----------------------------------------------------------------------------------------------
 Internal  Forces:  Max     0.044731394 RMS     0.007837065

 GradGradGradGradGradGradGradGradGradGradGradGradGradGradGradGradGradGrad
 Berny optimization.
 Search for a saddle point.
 Step number   1 out of a maximum of  100
 All quantities printed in internal units (Hartrees-Bohrs-Radians)
 Swaping is turned off.
 Second derivative matrix not updated -- analytic derivatives used.
 ITU=  0
     Eigenvalues ---   -0.02883  -0.01950   0.00594   0.01533   0.01972
     Eigenvalues ---    0.02287   0.04667   0.05221   0.05696   0.06306
     Eigenvalues ---    0.07032   0.07586   0.08639   0.09499   0.11047
     Eigenvalues ---    0.14970   0.26583   0.27462   0.35952   0.43233
     Eigenvalues ---    0.51871   0.52002   0.93817   0.96021   1.19606
     Eigenvalues ---    1.29101   1.76015   2.07272   3.85382   5.33360
     Eigenvalues ---    6.81535  16.37369  23.14206
 Eigenvectors required to have negative eigenvalues:
                          D10       B1        A1        A2        D5
   1                    0.72264   0.32476  -0.31565   0.29905  -0.25676
                          D6        D2        A3        A6        D9
   1                   -0.24970   0.15160  -0.08582  -0.07492  -0.06894
 RFO step:  Lambda0=6.312222711D-03 Lambda=-5.16317016D-02.
 Linear search not attempted -- option 19 set.
 Maximum step size (   0.300) exceeded in Quadratic search.
    -- Step size scaled by   0.275
 Variable       Old X    -DE/DX   Delta X   Delta X   Delta X     New X
                                 (Linear)    (Quad)   (Total)
    B1        4.31962  -0.04473   0.00000  -0.21128  -0.21128   4.10835
    B2        4.03459   0.00025   0.00000   0.00581   0.00581   4.04040
    B3        4.04144   0.00027   0.00000  -0.00203  -0.00203   4.03941
    B4        2.05537  -0.00002   0.00000  -0.00035  -0.00035   2.05501
    B5        3.93950   0.00013   0.00000   0.01011   0.01011   3.94961
    B6        4.02824   0.00001   0.00000  -0.00221  -0.00221   4.02603
    B7        3.17862  -0.00033   0.00000  -0.00154  -0.00154   3.17708
    B8        4.04976   0.00001   0.00000   0.00297   0.00297   4.05273
    B9        1.83315   0.00027   0.00000  -0.00012  -0.00012   1.83303
   B10        2.87829  -0.00012   0.00000   0.00479   0.00479   2.88309
   B11        2.78616   0.00058   0.00000   0.00491   0.00491   2.79107
   B12        2.67085  -0.00159   0.00000  -0.00286  -0.00286   2.66799
    A1        1.98553   0.00030   0.00000  -0.04268  -0.04268   1.94285
    A2        1.94624   0.00010   0.00000   0.08330   0.08330   2.02954
    A3        1.61441   0.00031   0.00000   0.01110   0.01110   1.62551
    A4        2.27836  -0.00045   0.00000  -0.00834  -0.00834   2.27002
    A5        1.52210  -0.00115   0.00000  -0.01112  -0.01112   1.51098
    A6        1.21755   0.00188   0.00000   0.04307   0.04307   1.26062
    A7        1.49666  -0.00108   0.00000  -0.00309  -0.00309   1.49356
    A8        1.72263   0.00085   0.00000   0.00165   0.00165   1.72427
    A9        1.72073   0.00257   0.00000   0.02103   0.02103   1.74176
   A10        2.10582  -0.00045   0.00000  -0.01154  -0.01154   2.09428
   A11        1.97614   0.00228   0.00000   0.00456   0.00456   1.98070
    D1        0.93477   0.00078   0.00000   0.01334   0.01334   0.94811
    D2        1.58917   0.00005   0.00000   0.02915   0.02915   1.61831
    D3        2.04834   0.00003   0.00000   0.00898   0.00898   2.05732
    D4        2.51016  -0.00059   0.00000  -0.00031  -0.00031   2.50984
    D5        2.09405  -0.00057   0.00000  -0.05222  -0.05222   2.04183
    D6       -2.54761   0.00062   0.00000  -0.05128  -0.05128  -2.59889
    D7        0.17914  -0.00008   0.00000  -0.00033  -0.00033   0.17881
    D8       -1.88603   0.00006   0.00000  -0.00603  -0.00603  -1.89206
    D9        1.87076   0.00135   0.00000   0.00378   0.00378   1.87454
   D10        1.81927  -0.00018   0.00000   0.16461   0.16461   1.98387
         Item               Value     Threshold  Converged?
 Maximum Force            0.044731     0.000450     NO 
 RMS     Force            0.007837     0.000300     NO 
 Maximum Displacement     0.211276     0.001800     NO 
 RMS     Displacement     0.052223     0.001200     NO 
 Predicted change in Energy=-1.053544D-02
 GradGradGradGradGradGradGradGradGradGradGradGradGradGradGradGradGradGrad

 ---------------------------------------------------------------------------------------------------
                            Z-MATRIX (ANGSTROMS AND DEGREES)
   CD    Cent   Atom    N1       Length/X        N2       Alpha/Y        N3        Beta/Z          J
 ---------------------------------------------------------------------------------------------------
      1      1  C 
      2      2  O        1   2.174044(     1)
      3      3  H        1   2.138085(     2)      2  111.317(    13)
      4      4  H        1   2.137562(     3)      2  116.284(    14)      3   54.322(    24)      0
      5      5  H        1   1.087465(     4)      2   93.135(    15)      4   92.723(    25)      0
      6      6  H        1   2.090044(     5)      2  130.063(    16)      5  117.876(    26)      0
      7      7  H        1   2.130481(     6)      2   86.573(    17)      5  143.803(    27)      0
      8      8  H        2   1.681239(     7)      1   72.228(    18)      5  116.988(    28)      0
      9      9  H        1   2.144612(     8)      2   85.575(    19)      8 -148.905(    29)      0
     10     10  H        2   0.969998(     9)      1   98.793(    20)      5   10.245(    30)      0
     11     11  C        1   1.525664(    10)      2   99.796(    21)     10 -108.407(    31)      0
     12     12  C        1   1.476972(    11)     11  119.993(    22)      2  107.403(    32)      0
     13     13  O       11   1.411838(    12)      1  113.486(    23)     12  113.668(    33)      0
 ---------------------------------------------------------------------------------------------------
                         Z-Matrix orientation:                         
 ---------------------------------------------------------------------
 Center     Atomic      Atomic             Coordinates (Angstroms)
 Number     Number       Type             X           Y           Z
 ---------------------------------------------------------------------
      1          6           0        0.000000    0.000000    0.000000
      2          8           0        0.000000    0.000000    2.174044
      3          1           0        1.991802    0.000000   -0.777259
      4          1           0        1.117781   -1.556844   -0.946560
      5          1           0       -0.911125   -0.590674   -0.059464
      6          1           0       -0.141618    1.593311   -1.345210
      7          1           0        0.756872    1.987429    0.127365
      8          1           0        1.385721   -0.801879    1.660886
      9          1           0       -1.031685    1.872861    0.165468
     10          1           0       -0.698787   -0.656205    2.322332
     11          6           0        1.322571   -0.714900   -0.259568
     12          6           0       -0.116889    1.450717   -0.251406
     13          8           0        1.935777   -1.206970    0.913093
 ---------------------------------------------------------------------
                    Distance matrix (angstroms):
                    1          2          3          4          5
     1  C    0.000000
     2  O    2.174044   0.000000
     3  H    2.138085   3.560543   0.000000
     4  H    2.137562   3.662154   1.793415   0.000000
     5  H    1.087465   2.483467   3.048132   2.415964   0.000000
     6  H    2.090044   3.865727   2.722625   3.415916   2.648598
     7  H    2.130481   2.951546   2.508639   3.720946   3.076318
     8  H    2.306897   1.681239   2.637214   2.727736   2.877450
     9  H    2.144612   2.933660   3.679377   4.197581   2.476718
    10  H    2.512396   0.969998   4.156602   3.846651   2.392140
    11  C    1.525664   2.860550   1.107681   1.105788   2.246079
    12  C    1.476972   2.828613   2.612983   3.324616   2.198847
    13  O    2.457182   2.606532   2.077788   2.061514   3.070918
                    6          7          8          9         10
     6  H    0.000000
     7  H    1.769488   0.000000
     8  H    4.135978   3.244592   0.000000
     9  H    1.775532   1.792627   3.903122   0.000000
    10  H    4.338389   3.731704   2.191781   3.340517   0.000000
    11  C    2.941140   2.787887   1.923460   3.524157   3.279563
    12  C    1.103336   1.093154   3.314949   1.090340   3.376663
    13  O    4.154163   3.494477   1.012845   4.341673   3.038128
                   11         12         13
    11  C    0.000000
    12  C    2.600386   0.000000
    13  O    1.411838   3.554264   0.000000
 Symmetry turned off by external request.
 Stoichiometry    C3H8O2
 Framework group  C1[X(C3H8O2)]
 Deg. of freedom    33
 Full point group                 C1      NOp   1
 Rotational constants (GHZ):      5.6055953      3.9743248      2.6247653
 Standard basis: 6-31++G(d,p) (6D, 7F)
 The following finite field(s) will be applied:
 An electric field of              0.0000  0.0000  0.0025
 Integral buffers will be    131072 words long.
 Raffenetti 2 integral format.
 Two-electron integral symmetry is turned off.
   143 basis functions,   224 primitive gaussians,   143 cartesian basis functions
    21 alpha electrons       21 beta electrons
       nuclear repulsion energy       185.2833799823 Hartrees.
 NAtoms=   13 NActive=   13 NUniq=   13 SFac= 1.00D+00 NAtFMM=   50 NAOKFM=F Big=F
 One-electron integrals computed using PRISM.
 PrsmSu:  requested number of processors reduced to:  10 ShMem   1 Linda.
 NBasis=   143 RedAO= T  NBF=   143
 NBsUse=   143 1.00D-06 NBFU=   143
 The nuclear repulsion energy is now       185.3909942532 hartrees.
 Initial guess read from the read-write file.
 B after Tr=     0.000000    0.000000    0.000000
         Rot=    1.000000    0.000000    0.000000    0.000000 Ang=   0.00 deg.
 Harris functional with IExCor=  402 diagonalized for initial guess.
 ExpMin= 3.60D-02 ExpMax= 5.48D+03 ExpMxC= 8.25D+02 IAcc=3 IRadAn=         0 AccDes= 0.00D+00
 HarFok:  IExCor=  402 AccDes= 0.00D+00 IRadAn=         0 IDoV= 1
 ScaDFX=  1.000000  1.000000  1.000000  1.000000
 FoFCou: FMM=F IPFlag=           0 FMFlag=      100000 FMFlg1=           0
         NFxFlg=           0 DoJE=T BraDBF=F KetDBF=T FulRan=T
         Omega=  0.000000  0.000000  1.000000  0.000000  0.000000 ICntrl=     500 IOpCl=  0
         NMat0=    1 NMatS0=    1 NMatT0=    0 NMatD0=    1 NMtDS0=    0 NMtDT0=    0
         I1Cent=           4 NGrid=           0.
 Symmetry not used in FoFCou.
 Requested convergence on RMS density matrix=1.00D-08 within 128 cycles.
 Requested convergence on MAX density matrix=1.00D-06.
 Requested convergence on             energy=1.00D-06.
 No special actions if energy rises.
 SCF Done:  E(RB3LYP) =  -269.522198957     A.U. after   11 cycles
             Convg  =    0.8808D-08             -V/T =  2.0104
 Range of M.O.s used for correlation:     1   143
 NBasis=   143 NAE=    21 NBE=    21 NFC=     0 NFV=     0
 NROrb=    143 NOA=    21 NOB=    21 NVA=   122 NVB=   122

 **** Warning!!: The largest alpha MO coefficient is  0.40526143D+02

 PrsmSu:  requested number of processors reduced to:  10 ShMem   1 Linda.
 PrsmSu:  requested number of processors reduced to:  17 ShMem   1 Linda.
 Symmetrizing basis deriv contribution to polar:
 IMax=3 JMax=2 DiffMx= 0.00D+00
 G2DrvN: will do     3 centers at a time, making    5 passes doing MaxLOS=2.
 Estimated number of processors is:   15
 Calling FoFCou, ICntrl=  3107 FMM=F I1Cent=   0 AccDes= 0.00D+00.
 CoulSu:  requested number of processors reduced to:  15 ShMem   1 Linda.
 Calling FoFCou, ICntrl=  3107 FMM=F I1Cent=   0 AccDes= 0.00D+00.
 CoulSu:  requested number of processors reduced to:  15 ShMem   1 Linda.
 Calling FoFCou, ICntrl=  3107 FMM=F I1Cent=   0 AccDes= 0.00D+00.
 CoulSu:  requested number of processors reduced to:  15 ShMem   1 Linda.
 Calling FoFCou, ICntrl=  3107 FMM=F I1Cent=   0 AccDes= 0.00D+00.
 CoulSu:  requested number of processors reduced to:  15 ShMem   1 Linda.
 Calling FoFCou, ICntrl=  3107 FMM=F I1Cent=   0 AccDes= 0.00D+00.
 CoulSu:  requested number of processors reduced to:  15 ShMem   1 Linda.
 FoFDir/FoFCou used for L=0 through L=2.
 End of G2Drv Frequency-dependent properties file   721 does not exist.
 End of G2Drv Frequency-dependent properties file   722 does not exist.
          IDoAtm=1111111111111
          Differentiating once with respect to electric field.
                with respect to dipole field.
          Differentiating once with respect to nuclear coordinates.
 PrRfSu:  requested number of processors reduced to:  16 ShMem   1 Linda.
 CalDSu:  requested number of processors reduced to:  22 ShMem   1 Linda.
 PrRfSu:  requested number of processors reduced to:  16 ShMem   1 Linda.
 CalDSu:  requested number of processors reduced to:  22 ShMem   1 Linda.
          There are    42 degrees of freedom in the 1st order CPHF.  IDoFFX=5.
     42 vectors produced by pass  0 Test12= 6.10D-15 2.38D-09 XBig12= 1.03D+02 8.51D+00.
 AX will form    21 AO Fock derivatives at one time.
 PrRfSu:  requested number of processors reduced to:  16 ShMem   1 Linda.
 CalDSu:  requested number of processors reduced to:  22 ShMem   1 Linda.
 PrRfSu:  requested number of processors reduced to:  16 ShMem   1 Linda.
 CalDSu:  requested number of processors reduced to:  22 ShMem   1 Linda.
     39 vectors produced by pass  1 Test12= 6.10D-15 2.38D-09 XBig12= 4.15D+01 1.22D+00.
 PrRfSu:  requested number of processors reduced to:  15 ShMem   1 Linda.
 CalDSu:  requested number of processors reduced to:  19 ShMem   1 Linda.
     39 vectors produced by pass  2 Test12= 6.10D-15 2.38D-09 XBig12= 2.31D-01 1.02D-01.
 PrRfSu:  requested number of processors reduced to:  15 ShMem   1 Linda.
 CalDSu:  requested number of processors reduced to:  19 ShMem   1 Linda.
     39 vectors produced by pass  3 Test12= 6.10D-15 2.38D-09 XBig12= 8.10D-04 4.17D-03.
 PrRfSu:  requested number of processors reduced to:  15 ShMem   1 Linda.
 CalDSu:  requested number of processors reduced to:  19 ShMem   1 Linda.
     39 vectors produced by pass  4 Test12= 6.10D-15 2.38D-09 XBig12= 1.29D-06 1.32D-04.
 PrRfSu:  requested number of processors reduced to:  15 ShMem   1 Linda.
 CalDSu:  requested number of processors reduced to:  19 ShMem   1 Linda.
     27 vectors produced by pass  5 Test12= 6.10D-15 2.38D-09 XBig12= 9.91D-10 3.80D-06.
 PrRfSu:  requested number of processors reduced to:  16 ShMem   1 Linda.
 CalDSu:  requested number of processors reduced to:  21 ShMem   1 Linda.
      3 vectors produced by pass  6 Test12= 6.10D-15 2.38D-09 XBig12= 7.45D-13 1.02D-07.
      3 vectors produced by pass  7 Test12= 6.10D-15 2.38D-09 XBig12= 7.49D-15 2.38D-08.
 Inverted reduced A of dimension   231 with in-core refinement.
 Isotropic polarizability for W=    0.000000       55.33 Bohr**3.
 End of Minotr Frequency-dependent properties file   721 does not exist.
 End of Minotr Frequency-dependent properties file   722 does not exist.
 PrsmSu:  requested number of processors reduced to:  10 ShMem   1 Linda.
 PrsmSu:  requested number of processors reduced to:  10 ShMem   1 Linda.
 Calling FoFJK, ICntrl=    100127 FMM=F ISym2X=0 I1Cent= 0 IOpClX= 0 NMat=1 NMatS=1 NMatT=0.
 CoulSu:  requested number of processors reduced to:  10 ShMem   1 Linda.
 CalDSu:  requested number of processors reduced to:  23 ShMem   1 Linda.
 -------------------------------------------------------------------
 Center     Atomic                   Forces (Hartrees/Bohr)
 Number     Number              X              Y              Z
 -------------------------------------------------------------------
      1        6           0.000938363   -0.001842455    0.053391623
      2        8           0.000123085    0.000955129   -0.049370248
      3        1          -0.001608911   -0.003519007    0.001819948
      4        1           0.001606040    0.002945464    0.001202232
      5        1           0.000208533   -0.000363327   -0.001055289
      6        1          -0.000013908    0.000641098   -0.000408543
      7        1          -0.000238167   -0.000044178    0.000264132
      8        1           0.007855256   -0.006877330   -0.008393102
      9        1          -0.000179655    0.000002173    0.000145572
     10        1          -0.000026272   -0.000025576    0.000650304
     11        6           0.001651937    0.001428910   -0.004058595
     12        6          -0.000325940    0.000586474   -0.002573555
     13        8          -0.009990361    0.006112624    0.008385520
 -------------------------------------------------------------------
 Cartesian Forces:  Max     0.053391623 RMS     0.012133868
 -----------------------------------------------------------------------------------------------
                       Internal Coordinate Forces (Hartree/Bohr or radian)
  Cent   Atom   N1       Length/X         N2         Alpha/Y        N3         Beta/Z          J
 -----------------------------------------------------------------------------------------------
      1  C 
      2  O        1  -0.057113(     1)
      3  H        1  -0.002160(     2)      2  -0.004487(    13)
      4  H        1  -0.001838(     3)      2  -0.001750(    14)      3  -0.013175(    24)     0
      5  H        1   0.000080(     4)      2   0.002163(    15)      4  -0.002228(    25)     0
      6  H        1   0.000753(     5)      2  -0.000392(    16)      5   0.000130(    26)     0
      7  H        1  -0.000110(     6)      2  -0.001092(    17)      5  -0.000831(    27)     0
      8  H        2   0.012316(     7)      1  -0.015460(    18)      5  -0.005474(    28)     0
      9  H        1   0.000100(     8)      2  -0.000561(    19)      8  -0.000632(    29)     0
     10  H        2   0.000136(     9)      1   0.001168(    20)      5   0.006142(    30)     0
     11  C        1  -0.011498(    10)      2  -0.048695(    21)     10  -0.006141(    31)     0
     12  C        1   0.001040(    11)     11  -0.001290(    22)      2   0.009010(    32)     0
     13  O       11   0.000495(    12)      1  -0.038249(    23)     12  -0.003199(    33)     0
 -----------------------------------------------------------------------------------------------
 Internal  Forces:  Max     0.057113046 RMS     0.015606952

 GradGradGradGradGradGradGradGradGradGradGradGradGradGradGradGradGradGrad
 Berny optimization.
 Search for a saddle point.
 Step number   2 out of a maximum of  100
 All quantities printed in internal units (Hartrees-Bohrs-Radians)
 Swaping is turned off.
 Second derivative matrix not updated -- analytic derivatives used.
 ITU=  0  0
     Eigenvalues ---   -0.01873   0.00133   0.01014   0.01633   0.01981
     Eigenvalues ---    0.03145   0.04792   0.05624   0.05974   0.06726
     Eigenvalues ---    0.07487   0.08339   0.08907   0.09746   0.12297
     Eigenvalues ---    0.15733   0.28116   0.35707   0.37480   0.42954
     Eigenvalues ---    0.51949   0.52160   0.86189   1.06141   1.27565
     Eigenvalues ---    1.31845   1.80161   2.06484   3.86788   5.15352
     Eigenvalues ---    6.78640  15.46439  23.00641
 Eigenvectors required to have negative eigenvalues:
                          B1        A6        A3        A1        A9
   1                    0.93269  -0.17536  -0.14369  -0.13074  -0.11604
                          B7        D9        A2        D5        D6
   1                   -0.11482  -0.09178  -0.06666  -0.05617  -0.05574
 RFO step:  Lambda0=3.770995307D-02 Lambda=-7.34549175D-03.
 Linear search not attempted -- option 19 set.
 Maximum step size (   0.300) exceeded in Quadratic search.
    -- Step size scaled by   0.270
 Variable       Old X    -DE/DX   Delta X   Delta X   Delta X     New X
                                 (Linear)    (Quad)   (Total)
    B1        4.10835  -0.05711   0.00000   0.18149   0.18149   4.28984
    B2        4.04040  -0.00216   0.00000  -0.00345  -0.00345   4.03694
    B3        4.03941  -0.00184   0.00000  -0.02757  -0.02757   4.01184
    B4        2.05501   0.00008   0.00000  -0.00035  -0.00035   2.05466
    B5        3.94961   0.00075   0.00000  -0.01128  -0.01128   3.93833
    B6        4.02603  -0.00011   0.00000  -0.00643  -0.00643   4.01960
    B7        3.17708   0.01232   0.00000  -0.06252  -0.06252   3.11456
    B8        4.05273   0.00010   0.00000  -0.00732  -0.00732   4.04541
    B9        1.83303   0.00014   0.00000   0.00021   0.00021   1.83324
   B10        2.88309  -0.01150   0.00000  -0.01346  -0.01346   2.86962
   B11        2.79107   0.00104   0.00000  -0.00919  -0.00919   2.78188
   B12        2.66799   0.00050   0.00000  -0.00620  -0.00620   2.66178
    A1        1.94285  -0.00449   0.00000  -0.08751  -0.08751   1.85534
    A2        2.02954  -0.00175   0.00000   0.01812   0.01812   2.04766
    A3        1.62551   0.00216   0.00000  -0.04404  -0.04404   1.58147
    A4        2.27002  -0.00039   0.00000   0.00933   0.00933   2.27935
    A5        1.51098  -0.00109   0.00000  -0.00037  -0.00037   1.51061
    A6        1.26062  -0.01546   0.00000  -0.02941  -0.02941   1.23121
    A7        1.49356  -0.00056   0.00000   0.01380   0.01380   1.50736
    A8        1.72427   0.00117   0.00000  -0.01428  -0.01428   1.70999
    A9        1.74176  -0.04869   0.00000  -0.03872  -0.03872   1.70304
   A10        2.09428  -0.00129   0.00000   0.01958   0.01958   2.11385
   A11        1.98070  -0.03825   0.00000   0.00152   0.00152   1.98222
    D1        0.94811  -0.01317   0.00000  -0.02449  -0.02449   0.92362
    D2        1.61831  -0.00223   0.00000   0.02171   0.02171   1.64003
    D3        2.05732   0.00013   0.00000   0.01320   0.01320   2.07052
    D4        2.50984  -0.00083   0.00000  -0.00082  -0.00082   2.50902
    D5        2.04183  -0.00547   0.00000  -0.08818  -0.08818   1.95365
    D6       -2.59889  -0.00063   0.00000  -0.09137  -0.09137  -2.69026
    D7        0.17881   0.00614   0.00000  -0.06503  -0.06503   0.11378
    D8       -1.89206  -0.00614   0.00000  -0.05231  -0.05231  -1.94437
    D9        1.87454   0.00901   0.00000  -0.01064  -0.01064   1.86391
   D10        1.98387  -0.00320   0.00000   0.11937   0.11937   2.10324
         Item               Value     Threshold  Converged?
 Maximum Force            0.057113     0.000450     NO 
 RMS     Force            0.015607     0.000300     NO 
 Maximum Displacement     0.181488     0.001800     NO 
 RMS     Displacement     0.052223     0.001200     NO 
 Predicted change in Energy= 7.847771D-03
 GradGradGradGradGradGradGradGradGradGradGradGradGradGradGradGradGradGrad

 ---------------------------------------------------------------------------------------------------
                            Z-MATRIX (ANGSTROMS AND DEGREES)
   CD    Cent   Atom    N1       Length/X        N2       Alpha/Y        N3        Beta/Z          J
 ---------------------------------------------------------------------------------------------------
      1      1  C 
      2      2  O        1   2.270084(     1)
      3      3  H        1   2.136259(     2)      2  106.303(    13)
      4      4  H        1   2.122972(     3)      2  117.323(    14)      3   52.920(    24)      0
      5      5  H        1   1.087278(     4)      2   90.611(    15)      4   93.967(    25)      0
      6      6  H        1   2.084074(     5)      2  130.597(    16)      5  118.632(    26)      0
      7      7  H        1   2.127081(     6)      2   86.552(    17)      5  143.756(    27)      0
      8      8  H        2   1.648155(     7)      1   70.543(    18)      5  111.936(    28)      0
      9      9  H        1   2.140737(     8)      2   86.366(    19)      8 -154.141(    29)      0
     10     10  H        2   0.970107(     9)      1   97.975(    20)      5    6.519(    30)      0
     11     11  C        1   1.518539(    10)      2   97.577(    21)     10 -111.404(    31)      0
     12     12  C        1   1.472107(    11)     11  121.115(    22)      2  106.794(    32)      0
     13     13  O       11   1.408556(    12)      1  113.573(    23)     12  120.507(    33)      0
 ---------------------------------------------------------------------------------------------------
                         Z-Matrix orientation:                         
 ---------------------------------------------------------------------
 Center     Atomic      Atomic             Coordinates (Angstroms)
 Number     Number       Type             X           Y           Z
 ---------------------------------------------------------------------
      1          6           0        0.000000    0.000000    0.000000
      2          8           0        0.000000    0.000000    2.270084
      3          1           0        2.050360    0.000000   -0.599688
      4          1           0        1.137213   -1.504732   -0.974443
      5          1           0       -0.910637   -0.593952   -0.011604
      6          1           0       -0.123664    1.577601   -1.356188
      7          1           0        0.748514    1.986914    0.127943
      8          1           0        1.273766   -0.890252    1.721095
      9          1           0       -1.041971    1.865110    0.135701
     10          1           0       -0.739899   -0.612813    2.404684
     11          6           0        1.317016   -0.728928   -0.200233
     12          6           0       -0.117502    1.444074   -0.260660
     13          8           0        1.802060   -1.347176    0.968754
 ---------------------------------------------------------------------
                    Distance matrix (angstroms):
                    1          2          3          4          5
     1  C    0.000000
     2  O    2.270084   0.000000
     3  H    2.136259   3.526977   0.000000
     4  H    2.122972   3.752922   1.799583   0.000000
     5  H    1.087278   2.527476   3.076707   2.439317   0.000000
     6  H    2.084074   3.956509   2.790608   3.352062   2.672615
     7  H    2.127081   3.016102   2.484367   3.682111   3.071339
     8  H    2.318879   1.648155   2.604167   2.768061   2.803864
     9  H    2.140737   3.019922   3.685369   4.163784   2.466968
    10  H    2.589497   0.970107   4.145761   3.967060   2.422386
    11  C    1.518539   2.892807   1.108464   1.110676   2.239696
    12  C    1.472107   2.916131   2.626769   3.283177   2.201054
    13  O    2.449650   2.599185   2.082437   2.059820   2.981136
                    6          7          8          9         10
     6  H    0.000000
     7  H    1.769429   0.000000
     8  H    4.184828   3.330482   0.000000
     9  H    1.775298   1.794640   3.932955   0.000000
    10  H    4.395659   3.762646   2.144554   3.373372   0.000000
    11  C    2.954973   2.794046   1.928575   3.522315   3.321141
    12  C    1.103653   1.093468   3.363340   1.090420   3.423773
    13  O    4.203342   3.596259   1.026592   4.370500   3.010439
                   11         12         13
    11  C    0.000000
    12  C    2.604502   0.000000
    13  O    1.408556   3.603783   0.000000
 Symmetry turned off by external request.
 Stoichiometry    C3H8O2
 Framework group  C1[X(C3H8O2)]
 Deg. of freedom    33
 Full point group                 C1      NOp   1
 Rotational constants (GHZ):      5.4981768      3.9374242      2.5510657
 Standard basis: 6-31++G(d,p) (6D, 7F)
 The following finite field(s) will be applied:
 An electric field of              0.0000  0.0000  0.0025
 Integral buffers will be    131072 words long.
 Raffenetti 2 integral format.
 Two-electron integral symmetry is turned off.
   143 basis functions,   224 primitive gaussians,   143 cartesian basis functions
    21 alpha electrons       21 beta electrons
       nuclear repulsion energy       184.2791834645 Hartrees.
 NAtoms=   13 NActive=   13 NUniq=   13 SFac= 1.00D+00 NAtFMM=   50 NAOKFM=F Big=F
 One-electron integrals computed using PRISM.
 PrsmSu:  requested number of processors reduced to:  10 ShMem   1 Linda.
 NBasis=   143 RedAO= T  NBF=   143
 NBsUse=   143 1.00D-06 NBFU=   143
 The nuclear repulsion energy is now       184.3953677986 hartrees.
 Initial guess read from the read-write file.
 B after Tr=     0.000000    0.000000    0.000000
         Rot=    1.000000    0.000000    0.000000    0.000000 Ang=   0.00 deg.
 Harris functional with IExCor=  402 diagonalized for initial guess.
 ExpMin= 3.60D-02 ExpMax= 5.48D+03 ExpMxC= 8.25D+02 IAcc=3 IRadAn=         0 AccDes= 0.00D+00
 HarFok:  IExCor=  402 AccDes= 0.00D+00 IRadAn=         0 IDoV= 1
 ScaDFX=  1.000000  1.000000  1.000000  1.000000
 FoFCou: FMM=F IPFlag=           0 FMFlag=      100000 FMFlg1=           0
         NFxFlg=           0 DoJE=T BraDBF=F KetDBF=T FulRan=T
         Omega=  0.000000  0.000000  1.000000  0.000000  0.000000 ICntrl=     500 IOpCl=  0
         NMat0=    1 NMatS0=    1 NMatT0=    0 NMatD0=    1 NMtDS0=    0 NMtDT0=    0
         I1Cent=           4 NGrid=           0.
 Symmetry not used in FoFCou.
 Requested convergence on RMS density matrix=1.00D-08 within 128 cycles.
 Requested convergence on MAX density matrix=1.00D-06.
 Requested convergence on             energy=1.00D-06.
 No special actions if energy rises.
 SCF Done:  E(RB3LYP) =  -269.514329312     A.U. after   12 cycles
             Convg  =    0.3867D-08             -V/T =  2.0104
 Range of M.O.s used for correlation:     1   143
 NBasis=   143 NAE=    21 NBE=    21 NFC=     0 NFV=     0
 NROrb=    143 NOA=    21 NOB=    21 NVA=   122 NVB=   122

 **** Warning!!: The largest alpha MO coefficient is  0.35327367D+02

 PrsmSu:  requested number of processors reduced to:  10 ShMem   1 Linda.
 PrsmSu:  requested number of processors reduced to:  17 ShMem   1 Linda.
 Symmetrizing basis deriv contribution to polar:
 IMax=3 JMax=2 DiffMx= 0.00D+00
 G2DrvN: will do     3 centers at a time, making    5 passes doing MaxLOS=2.
 Estimated number of processors is:   15
 Calling FoFCou, ICntrl=  3107 FMM=F I1Cent=   0 AccDes= 0.00D+00.
 CoulSu:  requested number of processors reduced to:  15 ShMem   1 Linda.
 Calling FoFCou, ICntrl=  3107 FMM=F I1Cent=   0 AccDes= 0.00D+00.
 CoulSu:  requested number of processors reduced to:  15 ShMem   1 Linda.
 Calling FoFCou, ICntrl=  3107 FMM=F I1Cent=   0 AccDes= 0.00D+00.
 CoulSu:  requested number of processors reduced to:  15 ShMem   1 Linda.
 Calling FoFCou, ICntrl=  3107 FMM=F I1Cent=   0 AccDes= 0.00D+00.
 CoulSu:  requested number of processors reduced to:  15 ShMem   1 Linda.
 Calling FoFCou, ICntrl=  3107 FMM=F I1Cent=   0 AccDes= 0.00D+00.
 CoulSu:  requested number of processors reduced to:  15 ShMem   1 Linda.
 FoFDir/FoFCou used for L=0 through L=2.
 End of G2Drv Frequency-dependent properties file   721 does not exist.
 End of G2Drv Frequency-dependent properties file   722 does not exist.
          IDoAtm=1111111111111
          Differentiating once with respect to electric field.
                with respect to dipole field.
          Differentiating once with respect to nuclear coordinates.
 PrRfSu:  requested number of processors reduced to:  16 ShMem   1 Linda.
 CalDSu:  requested number of processors reduced to:  22 ShMem   1 Linda.
 PrRfSu:  requested number of processors reduced to:  16 ShMem   1 Linda.
 CalDSu:  requested number of processors reduced to:  22 ShMem   1 Linda.
          There are    42 degrees of freedom in the 1st order CPHF.  IDoFFX=5.
     42 vectors produced by pass  0 Test12= 6.10D-15 2.38D-09 XBig12= 1.29D+02 9.59D+00.
 AX will form    21 AO Fock derivatives at one time.
 PrRfSu:  requested number of processors reduced to:  16 ShMem   1 Linda.
 CalDSu:  requested number of processors reduced to:  22 ShMem   1 Linda.
 PrRfSu:  requested number of processors reduced to:  16 ShMem   1 Linda.
 CalDSu:  requested number of processors reduced to:  22 ShMem   1 Linda.
     39 vectors produced by pass  1 Test12= 6.10D-15 2.38D-09 XBig12= 5.37D+01 1.42D+00.
 PrRfSu:  requested number of processors reduced to:  15 ShMem   1 Linda.
 CalDSu:  requested number of processors reduced to:  19 ShMem   1 Linda.
     39 vectors produced by pass  2 Test12= 6.10D-15 2.38D-09 XBig12= 3.23D-01 1.22D-01.
 PrRfSu:  requested number of processors reduced to:  15 ShMem   1 Linda.
 CalDSu:  requested number of processors reduced to:  19 ShMem   1 Linda.
     39 vectors produced by pass  3 Test12= 6.10D-15 2.38D-09 XBig12= 1.20D-03 4.91D-03.
 PrRfSu:  requested number of processors reduced to:  15 ShMem   1 Linda.
 CalDSu:  requested number of processors reduced to:  19 ShMem   1 Linda.
     39 vectors produced by pass  4 Test12= 6.10D-15 2.38D-09 XBig12= 1.97D-06 1.50D-04.
 PrRfSu:  requested number of processors reduced to:  15 ShMem   1 Linda.
 CalDSu:  requested number of processors reduced to:  19 ShMem   1 Linda.
     26 vectors produced by pass  5 Test12= 6.10D-15 2.38D-09 XBig12= 1.42D-09 4.54D-06.
 PrRfSu:  requested number of processors reduced to:  16 ShMem   1 Linda.
 CalDSu:  requested number of processors reduced to:  21 ShMem   1 Linda.
      3 vectors produced by pass  6 Test12= 6.10D-15 2.38D-09 XBig12= 1.06D-12 1.41D-07.
      3 vectors produced by pass  7 Test12= 6.10D-15 2.38D-09 XBig12= 7.17D-15 1.48D-08.
 Inverted reduced A of dimension   230 with in-core refinement.
 Isotropic polarizability for W=    0.000000       57.15 Bohr**3.
 End of Minotr Frequency-dependent properties file   721 does not exist.
 End of Minotr Frequency-dependent properties file   722 does not exist.
 PrsmSu:  requested number of processors reduced to:  10 ShMem   1 Linda.
 PrsmSu:  requested number of processors reduced to:  10 ShMem   1 Linda.
 Calling FoFJK, ICntrl=    100127 FMM=F ISym2X=0 I1Cent= 0 IOpClX= 0 NMat=1 NMatS=1 NMatT=0.
 CoulSu:  requested number of processors reduced to:  10 ShMem   1 Linda.
 CalDSu:  requested number of processors reduced to:  23 ShMem   1 Linda.
 -------------------------------------------------------------------
 Center     Atomic                   Forces (Hartrees/Bohr)
 Number     Number              X              Y              Z
 -------------------------------------------------------------------
      1        6           0.000430078   -0.004327091    0.050118425
      2        8           0.000840290    0.001404077   -0.044169609
      3        1          -0.001935732   -0.003963778    0.001255861
      4        1           0.002344508    0.004294727    0.002523214
      5        1           0.000185377   -0.000528424   -0.001287228
      6        1          -0.000006126    0.000843097   -0.000850287
      7        1          -0.000478514   -0.000115826   -0.000005079
      8        1           0.008863541   -0.008951676   -0.011569603
      9        1          -0.000124078    0.000016264   -0.000045960
     10        1          -0.000125273    0.000228647    0.000707536
     11        6           0.002584351    0.002633599   -0.005025153
     12        6           0.000006540    0.000961537   -0.002363509
     13        8          -0.012584962    0.007504849    0.010711392
 -------------------------------------------------------------------
 Cartesian Forces:  Max     0.050118425 RMS     0.011555152
 -----------------------------------------------------------------------------------------------
                       Internal Coordinate Forces (Hartree/Bohr or radian)
  Cent   Atom   N1       Length/X         N2         Alpha/Y        N3         Beta/Z          J
 -----------------------------------------------------------------------------------------------
      1  C 
      2  O        1  -0.055032(     1)
      3  H        1  -0.002210(     2)      2  -0.002672(    13)
      4  H        1  -0.002946(     3)      2  -0.005287(    14)      3  -0.015174(    24)     0
      5  H        1   0.000147(     4)      2   0.002642(    15)      4   0.000723(    25)     0
      6  H        1   0.001192(     5)      2   0.000387(    16)      5   0.000179(    26)     0
      7  H        1  -0.000277(     6)      2  -0.000047(    17)      5  -0.001633(    27)     0
      8  H        2   0.015539(     7)      1  -0.021119(    18)      5  -0.006231(    28)     0
      9  H        1   0.000072(     8)      2   0.000205(    19)      8  -0.000405(    29)     0
     10  H        2   0.000049(     9)      1   0.001297(    20)      5   0.002937(    30)     0
     11  C        1  -0.014290(    10)      2  -0.061365(    21)     10  -0.003401(    31)     0
     12  C        1   0.001361(    11)     11  -0.001817(    22)      2   0.011042(    32)     0
     13  O       11   0.001262(    12)      1  -0.047727(    23)     12  -0.006143(    33)     0
 -----------------------------------------------------------------------------------------------
 Internal  Forces:  Max     0.061364619 RMS     0.017822166

 GradGradGradGradGradGradGradGradGradGradGradGradGradGradGradGradGradGrad
 Berny optimization.
 Search for a saddle point.
 Step number   3 out of a maximum of  100
 All quantities printed in internal units (Hartrees-Bohrs-Radians)
 Swaping is turned off.
 Second derivative matrix not updated -- analytic derivatives used.
 ITU=  0  0  0
     Eigenvalues ---   -0.01839   0.00484   0.01235   0.01492   0.01849
     Eigenvalues ---    0.03196   0.04656   0.05455   0.05849   0.06823
     Eigenvalues ---    0.07131   0.07733   0.08976   0.09257   0.12766
     Eigenvalues ---    0.15075   0.28516   0.35984   0.42386   0.43270
     Eigenvalues ---    0.51959   0.52316   0.78237   1.12025   1.27626
     Eigenvalues ---    1.31578   1.78503   2.05431   3.82016   4.87298
     Eigenvalues ---    6.78450  14.50191  22.96032
 Eigenvectors required to have negative eigenvalues:
                          B1        A6        A3        A9        B7
   1                    0.93340  -0.16713  -0.14360  -0.13086  -0.13045
                          A1        A2        D9        B3        A10
   1                   -0.12520  -0.09521  -0.07279  -0.05484   0.04727
 RFO step:  Lambda0=3.348369286D-02 Lambda=-6.97240272D-03.
 Linear search not attempted -- option 19 set.
 Maximum step size (   0.300) exceeded in Quadratic search.
    -- Step size scaled by   0.303
 Variable       Old X    -DE/DX   Delta X   Delta X   Delta X     New X
                                 (Linear)    (Quad)   (Total)
    B1        4.28984  -0.05503   0.00000   0.20620   0.20620   4.49604
    B2        4.03694  -0.00221   0.00000  -0.00298  -0.00298   4.03397
    B3        4.01184  -0.00295   0.00000  -0.02852  -0.02852   3.98331
    B4        2.05466   0.00015   0.00000  -0.00002  -0.00002   2.05464
    B5        3.93833   0.00119   0.00000  -0.00884  -0.00884   3.92948
    B6        4.01960  -0.00028   0.00000  -0.00277  -0.00277   4.01683
    B7        3.11456   0.01554   0.00000  -0.07438  -0.07438   3.04018
    B8        4.04541   0.00007   0.00000  -0.00608  -0.00608   4.03933
    B9        1.83324   0.00005   0.00000  -0.00004  -0.00004   1.83319
   B10        2.86962  -0.01429   0.00000  -0.01467  -0.01467   2.85496
   B11        2.78188   0.00136   0.00000  -0.00732  -0.00732   2.77456
   B12        2.66178   0.00126   0.00000  -0.00800  -0.00800   2.65378
    A1        1.85534  -0.00267   0.00000  -0.08114  -0.08114   1.77420
    A2        2.04766  -0.00529   0.00000  -0.00960  -0.00960   2.03806
    A3        1.58147   0.00264   0.00000  -0.04473  -0.04473   1.53673
    A4        2.27935   0.00039   0.00000   0.02174   0.02174   2.30109
    A5        1.51061  -0.00005   0.00000   0.01337   0.01337   1.52398
    A6        1.23121  -0.02112   0.00000  -0.03270  -0.03270   1.19852
    A7        1.50736   0.00020   0.00000   0.02461   0.02461   1.53197
    A8        1.70999   0.00130   0.00000  -0.01120  -0.01120   1.69879
    A9        1.70304  -0.06136   0.00000  -0.05029  -0.05029   1.65275
   A10        2.11385  -0.00182   0.00000   0.01922   0.01922   2.13308
   A11        1.98222  -0.04773   0.00000   0.00178   0.00178   1.98400
    D1        0.92362  -0.01517   0.00000  -0.03399  -0.03399   0.88963
    D2        1.64003   0.00072   0.00000   0.02128   0.02128   1.66131
    D3        2.07052   0.00018   0.00000   0.01050   0.01050   2.08101
    D4        2.50902  -0.00163   0.00000  -0.00116  -0.00116   2.50786
    D5        1.95365  -0.00623   0.00000  -0.07075  -0.07075   1.88290
    D6       -2.69026  -0.00041   0.00000  -0.07291  -0.07291  -2.76318
    D7        0.11378   0.00294   0.00000  -0.06337  -0.06337   0.05040
    D8       -1.94437  -0.00340   0.00000  -0.05085  -0.05085  -1.99522
    D9        1.86391   0.01104   0.00000  -0.00415  -0.00415   1.85976
   D10        2.10324  -0.00614   0.00000   0.08932   0.08932   2.19257
         Item               Value     Threshold  Converged?
 Maximum Force            0.061365     0.000450     NO 
 RMS     Force            0.017822     0.000300     NO 
 Maximum Displacement     0.206201     0.001800     NO 
 RMS     Displacement     0.052223     0.001200     NO 
 Predicted change in Energy= 7.699368D-03
 GradGradGradGradGradGradGradGradGradGradGradGradGradGradGradGradGradGrad

 ---------------------------------------------------------------------------------------------------
                            Z-MATRIX (ANGSTROMS AND DEGREES)
   CD    Cent   Atom    N1       Length/X        N2       Alpha/Y        N3        Beta/Z          J
 ---------------------------------------------------------------------------------------------------
      1      1  C 
      2      2  O        1   2.379200(     1)
      3      3  H        1   2.134685(     2)      2  101.654(    13)
      4      4  H        1   2.107878(     3)      2  116.772(    14)      3   50.972(    24)      0
      5      5  H        1   1.087269(     4)      2   88.048(    15)      4   95.186(    25)      0
      6      6  H        1   2.079394(     5)      2  131.843(    16)      5  119.233(    26)      0
      7      7  H        1   2.125615(     6)      2   87.317(    17)      5  143.690(    27)      0
      8      8  H        2   1.608794(     7)      1   68.670(    18)      5  107.882(    28)      0
      9      9  H        1   2.137521(     8)      2   87.775(    19)      8 -158.318(    29)      0
     10     10  H        2   0.970083(     9)      1   97.334(    20)      5    2.888(    30)      0
     11     11  C        1   1.510778(    10)      2   94.695(    21)     10 -114.318(    31)      0
     12     12  C        1   1.468233(    11)     11  122.216(    22)      2  106.556(    32)      0
     13     13  O       11   1.404322(    12)      1  113.675(    23)     12  125.625(    33)      0
 ---------------------------------------------------------------------------------------------------
                         Z-Matrix orientation:                         
 ---------------------------------------------------------------------
 Center     Atomic      Atomic             Coordinates (Angstroms)
 Number     Number       Type             X           Y           Z
 ---------------------------------------------------------------------
      1          6           0        0.000000    0.000000    0.000000
      2          8           0        0.000000    0.000000    2.379200
      3          1           0        2.090678    0.000000   -0.431211
      4          1           0        1.185040   -1.461950   -0.949489
      5          1           0       -0.902538   -0.605152    0.037028
      6          1           0       -0.124470    1.544091   -1.387144
      7          1           0        0.720915    1.997154    0.099486
      8          1           0        1.176448   -0.928306    1.794020
      9          1           0       -1.069321    1.848963    0.082970
     10          1           0       -0.771127   -0.575405    2.503029
     11          6           0        1.317524   -0.728893   -0.123671
     12          6           0       -0.131576    1.433542   -0.288707
     13          8           0        1.692962   -1.416786    1.041649
 ---------------------------------------------------------------------
                    Distance matrix (angstroms):
                    1          2          3          4          5
     1  C    0.000000
     2  O    2.379200   0.000000
     3  H    2.134685   3.502763   0.000000
     4  H    2.107878   3.823846   1.796132   0.000000
     5  H    1.087269   2.581968   3.089466   2.462783   0.000000
     6  H    2.079394   4.072476   2.864421   3.307967   2.693121
     7  H    2.125615   3.115356   2.479217   3.644333   3.067816
     8  H    2.337582   1.608794   2.578608   2.794940   2.741101
     9  H    2.137521   3.136046   3.697112   4.136455   2.460205
    10  H    2.681582   0.970083   4.138935   4.066010   2.469680
    11  C    1.510778   2.920877   1.106180   1.112160   2.229307
    12  C    1.468233   3.031515   2.648351   3.248690   2.203806
    13  O    2.440990   2.581172   2.082012   2.055396   2.899074
                    6          7          8          9         10
     6  H    0.000000
     7  H    1.769183   0.000000
     8  H    4.233786   3.411345   0.000000
     9  H    1.773957   1.796434   3.960353   0.000000
    10  H    4.477039   3.823777   2.102447   3.438483   0.000000
    11  C    2.973578   2.799478   1.933186   3.519243   3.359401
    12  C    1.104009   1.093203   3.409840   1.090909   3.498383
    13  O    4.238972   3.672538   1.035114   4.383421   2.985848
                   11         12         13
    11  C    0.000000
    12  C    2.608305   0.000000
    13  O    1.404322   3.636366   0.000000
 Symmetry turned off by external request.
 Stoichiometry    C3H8O2
 Framework group  C1[X(C3H8O2)]
 Deg. of freedom    33
 Full point group                 C1      NOp   1
 Rotational constants (GHZ):      5.3842334      3.8843574      2.4849141
 Standard basis: 6-31++G(d,p) (6D, 7F)
 The following finite field(s) will be applied:
 An electric field of              0.0000  0.0000  0.0025
 Integral buffers will be    131072 words long.
 Raffenetti 2 integral format.
 Two-electron integral symmetry is turned off.
   143 basis functions,   224 primitive gaussians,   143 cartesian basis functions
    21 alpha electrons       21 beta electrons
       nuclear repulsion energy       183.3326140014 Hartrees.
 NAtoms=   13 NActive=   13 NUniq=   13 SFac= 1.00D+00 NAtFMM=   50 NAOKFM=F Big=F
 One-electron integrals computed using PRISM.
 PrsmSu:  requested number of processors reduced to:  10 ShMem   1 Linda.
 NBasis=   143 RedAO= T  NBF=   143
 NBsUse=   143 1.00D-06 NBFU=   143
 The nuclear repulsion energy is now       183.4584754842 hartrees.
 Initial guess read from the read-write file.
 B after Tr=     0.000000    0.000000    0.000000
         Rot=    1.000000    0.000000    0.000000    0.000000 Ang=   0.00 deg.
 Harris functional with IExCor=  402 diagonalized for initial guess.
 ExpMin= 3.60D-02 ExpMax= 5.48D+03 ExpMxC= 8.25D+02 IAcc=3 IRadAn=         0 AccDes= 0.00D+00
 HarFok:  IExCor=  402 AccDes= 0.00D+00 IRadAn=         0 IDoV= 1
 ScaDFX=  1.000000  1.000000  1.000000  1.000000
 FoFCou: FMM=F IPFlag=           0 FMFlag=      100000 FMFlg1=           0
         NFxFlg=           0 DoJE=T BraDBF=F KetDBF=T FulRan=T
         Omega=  0.000000  0.000000  1.000000  0.000000  0.000000 ICntrl=     500 IOpCl=  0
         NMat0=    1 NMatS0=    1 NMatT0=    0 NMatD0=    1 NMtDS0=    0 NMtDT0=    0
         I1Cent=           4 NGrid=           0.
[...]
     12  C        1  -0.000070(    11)     11  -0.000053(    22)      2   0.000031(    32)     0
     13  O       11   0.000000(    12)      1   0.000000(    23)     12   0.000001(    33)     0
 -----------------------------------------------------------------------------------------------
 Internal  Forces:  Max     0.000160149 RMS     0.000045122

 GradGradGradGradGradGradGradGradGradGradGradGradGradGradGradGradGradGrad
 Berny optimization.
 Search for a saddle point.
 Step number   1 out of a maximum of    2
 All quantities printed in internal units (Hartrees-Bohrs-Radians)
 Swaping is turned off.
 Second derivative matrix not updated -- analytic derivatives used.
 ITU=  0
     Eigenvalues ---   -0.05982   0.00875   0.01528   0.01640   0.02005
     Eigenvalues ---    0.02815   0.03882   0.04268   0.05973   0.06874
     Eigenvalues ---    0.07184   0.08785   0.09447   0.09890   0.15415
     Eigenvalues ---    0.18101   0.29625   0.34617   0.35676   0.36855
     Eigenvalues ---    0.41915   0.46973   0.50832   0.53706   0.66748
     Eigenvalues ---    1.06444   1.37972   2.11435   2.45442   2.79157
     Eigenvalues ---    5.21908   7.02825  19.08571
 Eigenvectors required to have negative eigenvalues:
                          B1        B3        B7        A11       D10
   1                    0.59793  -0.58061  -0.34678   0.21654   0.17556
                          A2        B12       A3        A8        A1
   1                    0.16812  -0.15334  -0.12918   0.12405   0.07075
 Angle between quadratic step and forces=  80.61 degrees.
 Linear search not attempted -- option 19 set.
 Variable       Old X    -DE/DX   Delta X   Delta X   Delta X     New X
                                 (Linear)    (Quad)   (Total)
    B1        4.29682   0.00000   0.00000   0.00001   0.00001   4.29683
    B2        4.05292   0.00000   0.00000  -0.00005  -0.00005   4.05287
    B3        3.41512   0.00000   0.00000   0.00015   0.00015   3.41527
    B4        2.05386   0.00000   0.00000   0.00001   0.00001   2.05387
    B5        4.07343   0.00003   0.00000  -0.00027  -0.00027   4.07316
    B6        4.04015   0.00002   0.00000   0.00003   0.00003   4.04019
    B7        1.98267   0.00000   0.00000   0.00008   0.00008   1.98274
    B8        3.92000   0.00004   0.00000   0.00019   0.00019   3.92019
    B9        1.82514   0.00000   0.00000   0.00000   0.00000   1.82514
   B10        2.75598   0.00000   0.00000   0.00003   0.00003   2.75600
   B11        2.79253  -0.00007   0.00000  -0.00012  -0.00012   2.79241
   B12        2.49781   0.00000   0.00000   0.00001   0.00001   2.49782
    A1        1.58701   0.00000   0.00000  -0.00018  -0.00018   1.58683
    A2        2.15517   0.00000   0.00000  -0.00012  -0.00012   2.15505
    A3        1.46654   0.00000   0.00000   0.00002   0.00002   1.46657
    A4        2.17392   0.00010   0.00000   0.00166   0.00166   2.17558
    A5        2.04904   0.00001   0.00000  -0.00099  -0.00099   2.04805
    A6        1.31604   0.00000   0.00000   0.00000   0.00000   1.31604
    A7        1.40643  -0.00016   0.00000   0.00058   0.00058   1.40701
    A8        1.95186   0.00000   0.00000  -0.00008  -0.00008   1.95179
    A9        1.50062  -0.00004   0.00000  -0.00011  -0.00011   1.50051
   A10        2.16868  -0.00005   0.00000   0.00007   0.00007   2.16875
   A11        2.05181   0.00000   0.00000   0.00001   0.00001   2.05182
    D1        0.76569   0.00000   0.00000  -0.00009  -0.00009   0.76560
    D2        1.74725   0.00000   0.00000   0.00014   0.00014   1.74739
    D3        1.59466  -0.00009   0.00000   0.00025   0.00025   1.59491
    D4        2.60751   0.00007   0.00000   0.00015   0.00015   2.60765
    D5        1.58661   0.00003   0.00000  -0.00006  -0.00006   1.58655
    D6       -2.68689  -0.00003   0.00000  -0.00177  -0.00177  -2.68866
    D7       -0.19925  -0.00004   0.00000  -0.00008  -0.00008  -0.19933
    D8       -2.21989   0.00004   0.00000  -0.00009  -0.00009  -2.21998
    D9        1.96678   0.00003   0.00000   0.00040   0.00040   1.96717
   D10        2.69861   0.00000   0.00000   0.00049   0.00049   2.69911
         Item               Value     Threshold  Converged?
 Maximum Force            0.000160     0.000450     YES
 RMS     Force            0.000045     0.000300     YES
 Maximum Displacement     0.001774     0.001800     YES
 RMS     Displacement     0.000492     0.001200     YES
 Predicted change in Energy=-5.972497D-08
 Optimization completed.
    -- Stationary point found.
                       ----------------------------
                       !   Optimized Parameters   !
                       ! (Angstroms and Degrees)  !
 ----------------------                            ----------------------
 !      Name          Value   Derivative information (Atomic Units)     !
 ------------------------------------------------------------------------
 !       B1          2.2738   -DE/DX =    0.0                           !
 !       B2          2.1447   -DE/DX =    0.0                           !
 !       B3          1.8072   -DE/DX =    0.0                           !
 !       B4          1.0869   -DE/DX =    0.0                           !
 !       B5          2.1556   -DE/DX =    0.0                           !
 !       B6          2.138    -DE/DX =    0.0                           !
 !       B7          1.0492   -DE/DX =    0.0                           !
 !       B8          2.0744   -DE/DX =    0.0                           !
 !       B9          0.9658   -DE/DX =    0.0                           !
 !       B10         1.4584   -DE/DX =    0.0                           !
 !       B11         1.4777   -DE/DX =   -0.0001                        !
 !       B12         1.3218   -DE/DX =    0.0                           !
 !       A1         90.9289   -DE/DX =    0.0                           !
 !       A2        123.4823   -DE/DX =    0.0                           !
 !       A3         84.0268   -DE/DX =    0.0                           !
 !       A4        124.5562   -DE/DX =    0.0001                        !
 !       A5        117.4014   -DE/DX =    0.0                           !
 !       A6         75.4037   -DE/DX =    0.0                           !
 !       A7         80.5828   -DE/DX =   -0.0002                        !
 !       A8        111.8335   -DE/DX =    0.0                           !
 !       A9         85.9794   -DE/DX =    0.0                           !
 !       A10       124.2565   -DE/DX =   -0.0001                        !
 !       A11       117.5601   -DE/DX =    0.0                           !
 !       D1         43.871    -DE/DX =    0.0                           !
 !       D2        100.11     -DE/DX =    0.0                           !
 !       D3         91.3672   -DE/DX =   -0.0001                        !
 !       D4        149.3992   -DE/DX =    0.0001                        !
 !       D5         90.906    -DE/DX =    0.0                           !
 !       D6       -153.9473   -DE/DX =    0.0                           !
 !       D7        -11.4163   -DE/DX =    0.0                           !
 !       D8       -127.1901   -DE/DX =    0.0                           !
 !       D9        112.6879   -DE/DX =    0.0                           !
 !       D10       154.6191   -DE/DX =    0.0                           !
 ------------------------------------------------------------------------
 GradGradGradGradGradGradGradGradGradGradGradGradGradGradGradGradGradGrad

 1\1\GINC-C53N09\Freq\RB3LYP\6-31++G(d,p)\C3H8O2\ROOT\13-Mar-2018\1\\#N
  Geom=AllCheck Guess=TCheck SCRF=Check GenChk RB3LYP/6-31++G(d,p) Freq
 \\OH-BACK-MID\\0,1\C\O,1,B1\H,1,B2,2,A1\H,1,B3,2,A2,3,D1,0\H,1,B4,2,A3
 ,4,D2,0\H,1,B5,2,A4,5,D3,0\H,1,B6,2,A5,5,D4,0\H,2,B7,1,A6,5,D5,0\H,1,B
 8,2,A7,8,D6,0\H,2,B9,1,A8,5,D7,0\C,1,B10,2,A9,10,D8,0\C,1,B11,11,A10,2
 ,D9,0\O,11,B12,1,A11,12,D10,0\\B1=2.2737792\B2=2.14471298\B3=1.8072018
 8\B4=1.08685671\B5=2.15556854\B6=2.13795794\B7=1.04918157\B8=2.0743744
 1\B9=0.96582035\B10=1.4584006\B11=1.47774502\B12=1.32178483\A1=90.9289
 0064\A2=123.48225506\A3=84.02675372\A4=124.55621874\A5=117.40138089\A6
 =75.40365042\A7=80.58277487\A8=111.83350539\A9=85.97937094\A10=124.256
 47175\A11=117.56012828\D1=43.87103501\D2=100.10999423\D3=91.36715827\D
 4=149.39918879\D5=90.90604051\D6=-153.94729339\D7=-11.4162684\D8=-127.
 19014298\D9=112.68791597\D10=154.61912869\\Version=EM64L-G09RevB.01\HF
 =-269.5011468\RMSD=4.904e-09\RMSF=2.300e-04\ZeroPoint=0.1047241\Therma
 l=0.1111884\Dipole=-1.3485844,1.2250083,-1.3407696\DipoleDeriv=0.31471
 61,-0.1196761,-0.3852119,-0.3260231,0.7092817,-0.0123702,-0.4818053,0.
 1984052,0.8325174,-0.5298131,0.1589379,0.2541431,0.2270735,-0.5367563,
 -0.1907842,0.2777613,-0.2177872,-1.1660856,-0.0263135,-0.1559969,0.043
 5252,-0.2272072,-0.0483972,0.1082232,-0.0333579,0.1182954,0.0482865,-0
 .0784708,0.1208134,-0.0015331,0.0525767,0.0222331,-0.0846551,-0.066926
 4,0.0160953,-0.1841844,0.0082206,-0.0364489,0.0344624,-0.0251084,-0.01
 45297,-0.008447,0.0483717,0.025935,-0.0399815,0.0065681,-0.0140196,-0.
 0572886,0.0036322,0.0468277,0.007145,-0.0925374,0.0832558,0.0180815,-0
 .0326664,-0.0562071,0.0534988,0.0059419,0.0759402,0.0066317,0.0051314,
 0.0773496,0.043561,0.3482771,-0.1290374,-0.2649844,-0.1892304,0.341359
 2,0.3200354,-0.1479325,0.1475608,0.5478602,0.1174588,0.0054951,0.02362
 55,0.0476287,0.0567588,0.0139417,0.0093217,-0.0093781,-0.0145845,0.214
 5843,-0.065163,-0.0415517,-0.0862154,0.2286875,0.0124275,0.0151588,0.0
 129047,0.2645509,0.2226376,0.1224427,0.3090539,0.185969,0.4553353,-0.6
 167103,0.5949139,-0.8162581,0.5029142,0.0058595,0.1225542,-0.0245886,0
 .1180585,-0.3527167,0.1447202,0.0690497,-0.0816676,0.1108589,-0.571058
 2,0.0463058,0.0568494,0.2129039,-0.9840237,0.2998421,-0.1971489,0.4452
 892,-0.9637946\Polar=55.4499309,-10.7100079,57.9800313,-2.7025112,-5.6
 812333,62.9692428\PG=C01 [X(C3H8O2)]\NImag=1\\0.61743751,0.05507262,0.
 53935682,0.02718872,-0.13402816,0.17237362,-0.01861224,-0.00125446,0.0
 0407444,0.50434092,-0.00041664,-0.01010566,-0.02269392,0.05742324,0.30
 315435,-0.00849902,-0.00735382,0.02621225,-0.21804443,-0.00617923,0.13
 753046,-0.02707006,-0.01744540,-0.00009991,0.00003376,0.00147826,-0.00
 125566,0.20681607,0.01584276,0.00352741,-0.00649293,0.00000033,0.00099
 809,0.00306940,0.11738711,0.13993061,0.00620814,-0.00563147,-0.0048621
 5,0.00126069,-0.00216210,0.00196333,-0.01301514,-0.02532659,0.05154525
 ,0.00577527,-0.00565689,-0.00196399,0.00132189,-0.00537166,0.00830304,
 -0.00370253,-0.01677806,-0.02194235,0.02351328,-0.00815915,-0.00600689
 ,-0.01068133,0.00051816,0.00314758,-0.00260603,-0.00306551,-0.00528411
 ,-0.00956030,0.01111140,0.06437982,0.00738304,-0.02410328,-0.03349803,
 0.00362249,-0.00425685,-0.00091924,-0.00014879,-0.00482210,-0.00340929
 ,0.00589897,0.06276383,0.18030495,-0.24571427,-0.13446209,0.02561833,0
 .00225667,0.00087534,0.00268671,-0.00388703,0.00368461,0.00042583,0.00
 117409,-0.00045507,0.00007243,0.25383529,-0.14097204,-0.15688641,0.020
 79340,0.00023265,0.00045021,-0.00179129,0.00316490,-0.00103660,0.00192
 294,-0.00035160,0.00183512,0.00180897,0.14408080,0.15645310,0.01713954
 ,0.01961755,-0.03860841,-0.00489773,-0.00092429,-0.01142999,0.00087578
 ,0.00029803,0.00341820,0.00166476,0.00182248,0.00266313,-0.02779814,-0
 .02671708,0.03847474,-0.00257333,0.00524761,-0.00001671,0.00003645,-0.
 00034624,0.00068537,0.00049558,0.00039911,-0.00007827,0.00126839,-0.00
 058025,0.00055599,0.00071728,0.00058939,0.00109630,0.22119211,0.029969
 55,-0.00510168,0.02156945,-0.00040552,0.00040688,-0.00048742,-0.000108
 34,0.00035943,0.00009759,0.00123738,-0.00050810,-0.00109890,-0.0005809
 0,0.00109214,-0.00091396,-0.01570864,0.05174087,-0.00631025,-0.0029334
 6,-0.00614393,0.00032957,0.00039287,-0.00019893,-0.00009999,-0.0004347
 1,0.00001318,-0.00080876,0.00058609,0.00032357,0.00014412,-0.00004757,
 0.00031922,0.14455869,-0.01655397,0.16468613,0.00705912,-0.00341280,-0
 .00173148,0.00013048,0.00040597,-0.00017562,-0.00006007,-0.00127519,0.
 00040839,-0.00088458,-0.00017756,-0.00058515,0.00029509,0.00164131,0.0
 0131116,-0.01640488,-0.00637781,0.01104233,0.25687988,-0.03036952,-0.0
 1422854,0.01556385,0.00000474,0.00016531,-0.00070182,0.00095584,0.0005
 0652,0.00028097,0.00038118,-0.00051116,-0.00023210,0.00189415,-0.00459
 369,0.00165081,0.00244898,-0.00019201,-0.00227429,0.08207423,0.0836345
 4,0.01001473,-0.00074239,-0.00486724,-0.00016846,0.00077970,-0.0006332
 6,-0.00080860,-0.00041549,-0.00011118,-0.00048235,0.00001130,-0.000317
 46,-0.00056289,0.00112227,0.00147008,-0.01693674,-0.00795972,0.0106252
 5,-0.10310804,-0.04487971,0.09698255,0.00589067,0.00030859,-0.03187826
 ,-0.09305996,0.04769042,0.03868572,0.00145113,-0.00091863,-0.00192365,
 -0.00863870,0.00393885,-0.00498624,-0.00116510,0.00070243,0.00091972,-
 0.00007118,0.00070367,-0.00027079,0.00008538,-0.00009059,0.00017034,0.
 10812509,-0.00111616,-0.00020727,0.03255591,0.09237638,-0.16346631,-0.
 04394161,-0.00208546,-0.00130376,0.00349919,0.00802772,-0.00424038,0.0
 0536870,0.00008179,-0.00002999,-0.00204198,0.00004165,-0.00070517,0.00
 024162,-0.00019417,-0.00002251,-0.00008656,-0.05532793,0.14669650,-0.0
 0633713,0.00545493,0.01130552,0.02042574,-0.00817817,-0.04095563,-0.00
 114799,-0.00068166,0.00169546,0.00381254,-0.00062959,0.00236952,-0.000
 53357,-0.00005028,-0.00229717,0.00022475,-0.00061183,-0.00002778,-0.00
 021096,-0.00003308,-0.00024416,-0.01099973,-0.00922523,0.05695557,-0.0
 0373423,0.00371141,0.00305498,-0.00012580,-0.00014735,0.00025347,-0.00
 039812,-0.00035983,0.00063498,0.00042576,-0.00061480,-0.00077097,-0.00
 009773,0.00045584,0.00116394,0.00461150,-0.01596632,-0.01942539,-0.006
 05056,0.01686561,0.02034556,-0.00006390,0.00021666,0.00021455,0.052434
 60,0.00845699,-0.02183100,-0.02585176,-0.00132649,0.00190403,-0.000176
 73,0.00004319,0.00029261,-0.00009896,-0.00224156,0.00097556,0.00060673
 ,-0.00033066,0.00017895,0.00234893,-0.00108478,0.00210687,0.00237568,-
 0.00231250,0.00734938,0.00920742,0.00121307,-0.00103653,-0.00114970,-0
 .03425473,0.14295551,-0.00147437,0.00125452,0.01239822,0.00038800,0.00
 033687,-0.00172730,-0.00003449,-0.00000821,-0.00006625,0.00080517,0.00
 008970,-0.00088740,0.00041432,-0.00059176,-0.00066460,0.00426140,-0.01
 200654,-0.01542895,0.00201095,-0.00750654,-0.00970925,-0.00039693,0.00
 013224,-0.00028550,-0.04491161,0.13367214,0.21896805,0.00009184,0.0005
 6398,0.00606546,-0.37833033,-0.13912730,0.16146580,-0.00002636,0.00030
 882,0.00010965,0.00140117,-0.00073977,-0.00058883,0.00036768,-0.000293
 88,-0.00080418,0.00009047,0.00002230,-0.00016966,-0.00005159,0.0000107
 6,-0.00015941,-0.01544457,-0.01909590,0.00581755,0.00008479,0.00023547
 ,-0.00033396,0.39247960,0.00016828,-0.00030277,0.00030116,-0.17969422,
 -0.10933246,0.08087272,0.00008453,-0.00000182,0.00010557,0.00028225,0.
 00006653,0.00039217,-0.00003156,0.00044044,-0.00053645,-0.00001195,0.0
 0007850,0.00011871,-0.00001097,-0.00007018,-0.00005286,0.02303172,0.01
 489236,-0.00894621,-0.00039242,-0.00002939,0.00033521,0.15521560,0.099
 54388,0.00554985,0.00292181,0.00613137,0.15876096,0.06253080,-0.079292
 16,-0.00062605,-0.00014769,0.00014562,0.00142821,-0.00121266,0.0002357
 0,-0.00065810,-0.00067091,-0.00137939,0.00014104,0.00009022,-0.0002681
 9,-0.00016008,-0.00013048,-0.00010199,0.00742741,0.00536928,-0.0031402
 7,0.00005274,0.00027941,-0.00053967,-0.16992562,-0.06917593,0.08333185
 ,-0.23880927,0.04788891,-0.01369069,-0.00099743,0.00402330,0.00560943,
 -0.18617572,-0.10531260,0.01163170,-0.02590080,-0.00337256,-0.01145740
 ,-0.02039712,0.01700393,0.00733907,0.00009424,-0.00406132,0.00219231,0
 .00100203,-0.00108038,0.00097400,0.00212847,-0.00420488,0.00749918,0.0
 0060829,-0.00045920,-0.00101873,-0.00045196,0.00046343,-0.00015495,0.5
 4676590,0.04228007,-0.09104605,0.02810893,0.01450618,-0.01422852,-0.01
 207246,-0.09368999,-0.11874613,0.01094963,-0.00020664,-0.05630401,-0.0
 6218353,-0.02096413,0.01051349,0.00111251,-0.00077526,-0.00162441,0.00
 021477,0.00416079,0.00048330,0.00013054,-0.01148118,0.01755487,0.01073
 241,0.00139904,-0.00215403,0.00022486,-0.00029670,-0.00083152,-0.00156
 554,0.03499538,0.49926851,-0.03916534,0.06018725,0.01130705,-0.0065876
 1,0.02642451,-0.02787565,0.00445050,0.01635953,-0.03764600,0.03188618,
 -0.07410033,-0.11373229,0.00278345,-0.00155287,0.00050809,-0.00461015,
 0.00015789,0.00197155,-0.00080462,-0.00220858,0.00083473,0.04089093,-0
 .03013273,-0.03977299,-0.00187847,0.00389898,-0.00212339,-0.00467147,-
 0.00060842,-0.00560875,0.00999821,-0.12798086,0.35850392,-0.09801778,0
 .01093987,-0.00274337,0.00134003,-0.00044493,-0.00077224,0.00127823,0.
 00132963,-0.00121841,-0.00115771,0.00176850,0.00205893,0.00786157,-0.0
 2373491,0.00332754,-0.20912172,0.01051707,-0.13102458,-0.24172240,-0.0
 7322862,0.09094494,-0.00159543,0.00138436,0.00093263,-0.04725021,0.031
 31140,0.04059438,-0.00010316,0.00005788,-0.00064850,0.00743100,0.01892
 581,-0.00789489,0.58467292,0.00451907,-0.20799509,0.05367720,0.0001932
 3,-0.00142965,0.00568023,-0.00046091,0.00263246,-0.00119541,0.00278832
 ,-0.00189053,0.00475750,0.00568067,-0.00840755,0.00664517,0.00930340,-
 0.04560231,0.01790498,-0.07333197,-0.07333644,0.04302406,-0.00045721,0
 .00041215,0.00074093,0.02967282,-0.13106430,-0.11617928,0.00068421,-0.
 00030099,0.00074737,0.00339847,-0.01613502,0.00491790,0.01573042,0.480
 49084,-0.00800514,0.07518990,-0.10516605,-0.00004264,0.00274430,0.0016
 7026,0.00184410,0.00032851,-0.00144581,-0.00554007,0.00155407,0.005222
 02,-0.00261728,0.00629535,0.00594853,-0.13057431,0.01626903,-0.1549689
 2,0.09132539,0.04066667,-0.09376386,-0.00003341,0.00025028,-0.00090532
 ,0.04137115,-0.12630403,-0.19964090,0.00003711,0.00025451,-0.00031911,
 0.00045395,-0.00092718,0.01266633,0.00922822,-0.02001551,0.53038089,-0
 .00172322,0.03849865,-0.01387751,-0.01833445,0.03395759,0.01105742,0.0
 1124512,-0.01430805,0.01749844,0.00540447,-0.00017221,-0.00105446,0.00
 475359,-0.00251883,-0.00133776,-0.00033492,0.00075887,-0.00015761,-0.0
 0027790,0.00013361,-0.00022306,0.00235808,-0.02010406,-0.01969757,-0.0
 0044439,0.00074979,-0.00030413,-0.00010756,0.00083745,-0.00118691,-0.0
 8529763,0.01114661,-0.02439671,-0.00361534,0.00227948,0.00255292,0.086
 37416,0.02472416,-0.02917288,0.02717819,0.01742578,-0.01166383,-0.0143
 1194,-0.00625822,-0.02187470,0.02711895,0.00677818,0.00434055,0.020998
 85,0.00052705,-0.00000921,-0.00236173,0.00047698,-0.00205101,0.0004092
 7,-0.00118932,0.00081549,-0.00013856,-0.00931323,-0.00854395,0.0125774
 9,-0.00058596,0.00035232,0.00024678,0.00251242,-0.00415258,0.00096432,
 0.01071752,-0.22675049,0.12463773,0.00544354,0.00262642,0.00369410,-0.
 05125891,0.29608386,-0.00369278,0.01016662,-0.04658221,0.04087898,-0.0
 4881451,-0.00434414,0.01006625,0.01827392,-0.01124038,-0.02306133,0.03
 196276,-0.03835519,0.00002478,-0.00052117,0.00157757,0.00069266,0.0014
 4817,-0.00090221,0.00067772,-0.00019569,-0.00016421,-0.03760511,0.0380
 1090,0.01530275,-0.00010492,0.00119189,-0.00029306,0.00315755,-0.00306
 019,0.00080499,-0.01937608,0.15325591,-0.15903260,-0.00278464,-0.00070
 514,0.00032194,0.03112693,-0.20101345,0.24290674\\-0.00074224,0.000676
 14,0.00000818,0.00074956,-0.00069360,-0.00000054,0.00000013,-0.0000217
 4,-0.00000006,0.00000039,0.00000005,-0.00000010,-0.00000024,0.,-0.0000
 0027,0.00002900,0.00000398,0.00003844,-0.00002403,-0.00000332,0.000010
 00,-0.00000062,0.00000085,0.00000006,0.00001378,-0.00003114,-0.0000469
 2,0.00000002,-0.00000007,-0.00000010,-0.00000097,0.00000035,0.00000006
 ,-0.00002492,0.00006855,-0.00000912,0.00000015,-0.00000004,0.00000038\
 \\@


 ... FOR AFTERWARDS A MAN FINDS PLEASURE IN HIS PAINS,
 WHEN HE HAS SUFFERED LONG AND WANDERED FAR.

                                    -- HOMER
 Job cpu time:  0 days  0 hours  8 minutes 12.2 seconds.
 File lengths (MBytes):  RWF=   1280 Int=      0 D2E=      0 Chk=     32 Scr=     32
 Normal termination of Gaussian 09 at Tue Mar 13 17:41:20 2018.
