 Entering Gaussian System, Link 0=g09
 Input=H2O-term-field.gjf
 Output=H2O-term-field.log
 Initial command:
 /share/home/zxchen/g09/l1.exe /scratch/zxchen/Gau-2650.inp -scrdir=/scratch/zxchen/
 Entering Link 1 = /share/home/zxchen/g09/l1.exe PID=      2652.
  
 Copyright (c) 1988,1990,1992,1993,1995,1998,2003,2009,2010,
            Gaussian, Inc.  All Rights Reserved.
  
 This is part of the Gaussian(R) 09 program.  It is based on
 the Gaussian(R) 03 system (copyright 2003, Gaussian, Inc.),
 the Gaussian(R) 98 system (copyright 1998, Gaussian, Inc.),
 the Gaussian(R) 94 system (copyright 1995, Gaussian, Inc.),
 the Gaussian 92(TM) system (copyright 1992, Gaussian, Inc.),
 the Gaussian 90(TM) system (copyright 1990, Gaussian, Inc.),
 the Gaussian 88(TM) system (copyright 1988, Gaussian, Inc.),
 the Gaussian 86(TM) system (copyright 1986, Carnegie Mellon
 University), and the Gaussian 82(TM) system (copyright 1983,
 Carnegie Mellon University). Gaussian is a federally registered
 trademark of Gaussian, Inc.
  
 This software contains proprietary and confidential information,
 including trade secrets, belonging to Gaussian, Inc.
  
 This software is provided under written license and may be
 used, copied, transmitted, or stored only in accord with that
 written license.
  
 The following legend is applicable only to US Government
 contracts under FAR:
  
                    RESTRICTED RIGHTS LEGEND
  
 Use, reproduction and disclosure by the US Government is
 subject to restrictions as set forth in subparagraphs (a)
 and (c) of the Commercial Computer Software - Restricted
 Rights clause in FAR 52.227-19.
  
 Gaussian, Inc.
 340 Quinnipiac St., Bldg. 40, Wallingford CT 06492
  
  
 ---------------------------------------------------------------
 Warning -- This program may not be used in any manner that
 competes with the business of Gaussian, Inc. or will provide
 assistance to any competitor of Gaussian, Inc.  The licensee
 of this program is prohibited from giving any competitor of
 Gaussian, Inc. access to this program.  By using this program,
 the user acknowledges that Gaussian, Inc. is engaged in the
 business of creating and licensing software in the field of
 computational chemistry and represents and warrants to the
 licensee that it is not a competitor of Gaussian, Inc. and that
 it will not use this program in any manner prohibited above.
 ---------------------------------------------------------------
  

 Cite this work as:
 Gaussian 09, Revision B.01,
 M. J. Frisch, G. W. Trucks, H. B. Schlegel, G. E. Scuseria, 
 M. A. Robb, J. R. Cheeseman, G. Scalmani, V. Barone, B. Mennucci, 
 G. A. Petersson, H. Nakatsuji, M. Caricato, X. Li, H. P. Hratchian, 
 A. F. Izmaylov, J. Bloino, G. Zheng, J. L. Sonnenberg, M. Hada, 
 M. Ehara, K. Toyota, R. Fukuda, J. Hasegawa, M. Ishida, T. Nakajima, 
 Y. Honda, O. Kitao, H. Nakai, T. Vreven, J. A. Montgomery, Jr., 
 J. E. Peralta, F. Ogliaro, M. Bearpark, J. J. Heyd, E. Brothers, 
 K. N. Kudin, V. N. Staroverov, T. Keith, R. Kobayashi, J. Normand, 
 K. Raghavachari, A. Rendell, J. C. Burant, S. S. Iyengar, J. Tomasi, 
 M. Cossi, N. Rega, J. M. Millam, M. Klene, J. E. Knox, J. B. Cross, 
 V. Bakken, C. Adamo, J. Jaramillo, R. Gomperts, R. E. Stratmann, 
 O. Yazyev, A. J. Austin, R. Cammi, C. Pomelli, J. W. Ochterski, 
 R. L. Martin, K. Morokuma, V. G. Zakrzewski, G. A. Voth, 
 P. Salvador, J. J. Dannenberg, S. Dapprich, A. D. Daniels, 
 O. Farkas, J. B. Foresman, J. V. Ortiz, J. Cioslowski, 
 and D. J. Fox, Gaussian, Inc., Wallingford CT, 2010.
 
 ******************************************
 Gaussian 09:  EM64L-G09RevB.01 12-Aug-2010
                 5-Mar-2018 
 ******************************************
 %chk=ts\H2O-term-field.chk
 %nprocshared=24
 Will use up to   24 processors via shared memory.
 ----------------------------------------------------------------------
 # field=z+25 freq opt=(z-matrix,ts,calcfc,noeigen) nosymm rb3lyp/6-31+
 +g(d,p)
 ----------------------------------------------------------------------
 1/5=1,10=4,11=1,14=-1,18=40,26=3,38=1/1,3;
 2/12=2,15=1,17=6,18=5,29=3,40=1/2;
 3/5=1,6=6,7=1111,11=2,14=3,15=25,16=1,25=1,30=1,71=2,74=-5,116=1/1,2,3;
 4//1;
 5/5=2,38=5/2;
 8/6=4,10=90,11=11/1;
 11/6=1,8=1,9=11,15=111,16=1,31=1/1,2,10;
 10/6=1,7=6,13=1,31=1/2;
 6/7=2,8=2,9=2,10=2,28=1/1;
 7/10=1,18=20,25=1,30=1/1,2,3,16;
 1/5=1,10=4,11=1,14=-1,18=40/3(2);
 2/15=1,29=3/2;
 99//99;
 2/15=1,29=3/2;
 3/5=1,6=6,7=1111,11=2,14=3,15=25,16=1,25=1,30=1,71=1,74=-5,116=1/1,2,3;
 4/5=5,16=3/1;
 5/5=2,38=5/2;
 7/30=1/1,2,3,16;
 1/5=1,11=1,14=-1,18=40/3(-5);
 2/15=1,29=3/2;
 6/7=2,8=2,9=2,10=2,19=2,28=1/1;
 99/9=1/99;
 ------------
 OH-BACK-TERM
 ------------
 Symbolic Z-matrix:
 Charge =  0 Multiplicity = 1
 C
 O                    1     2.20329 
 H                    2    B1       1    A1
 H                    2    B2       1    A2       3    D1       0
 H                    1    B3       2    A3       3    D2       0
 H                    1    B4       2    A4       3    D3       0
 H                    1    B5       2    A5       3    D4       0
 H                    1    B6       2    A6       3    D5       0
 H                    1    B7       2    A7       3    D6       0
 H                    1    B8       2    A8       3    D7       0
 C                    1    B9       2    A9       3    D8       0
 C                    1    B10      2    A10      11   D9       0
 O                    12   B11      1    A11      2    D10      0
       Variables:
  B1                    0.96                     
  B2                    1.04473                  
  B3                    1.07                     
  B4                    1.07                     
  B5                    2.76608                  
  B6                    2.88703                  
  B7                    3.43834                  
  B8                    2.09921                  
  B9                    2.54685                  
  B10                   1.47699                  
  B11                   1.43                     
  A1                  109.94163                  
  A2                   71.37976                  
  A3                   98.99694                  
  A4                   76.87242                  
  A5                   76.16809                  
  A6                  111.81475                  
  A7                   95.76582                  
  A8                  126.38247                  
  A9                   95.91841                  
  A10                 101.64969                  
  A11                  94.21089                  
  D1                 -101.99684                  
  D2                    6.47843                  
  D3                 -109.92239                  
  D4                  170.80164                  
  D5                  174.47812                  
  D6                  147.87599                  
  D7                  110.88798                  
  D8                  159.41149                  
  D9                  -32.54484                  
  D10                 -37.76004                  
 

 GradGradGradGradGradGradGradGradGradGradGradGradGradGradGradGradGradGrad
 Berny optimization.
 Initialization pass.
                       ----------------------------
                       !    Initial Parameters    !
                       ! (Angstroms and Degrees)  !
 ----------------------                            ----------------------
 !      Name          Value   Derivative information (Atomic Units)     !
 ------------------------------------------------------------------------
 !       B1          0.96     calculate D2E/DX2 analytically            !
 !       B2          1.0447   calculate D2E/DX2 analytically            !
 !       B3          1.07     calculate D2E/DX2 analytically            !
 !       B4          1.07     calculate D2E/DX2 analytically            !
 !       B5          2.7661   calculate D2E/DX2 analytically            !
 !       B6          2.887    calculate D2E/DX2 analytically            !
 !       B7          3.4383   calculate D2E/DX2 analytically            !
 !       B8          2.0992   calculate D2E/DX2 analytically            !
 !       B9          2.5469   calculate D2E/DX2 analytically            !
 !       B10         1.477    calculate D2E/DX2 analytically            !
 !       B11         1.43     calculate D2E/DX2 analytically            !
 !       A1        109.9416   calculate D2E/DX2 analytically            !
 !       A2         71.3798   calculate D2E/DX2 analytically            !
 !       A3         98.9969   calculate D2E/DX2 analytically            !
 !       A4         76.8724   calculate D2E/DX2 analytically            !
 !       A5         76.1681   calculate D2E/DX2 analytically            !
 !       A6        111.8147   calculate D2E/DX2 analytically            !
 !       A7         95.7658   calculate D2E/DX2 analytically            !
 !       A8        126.3825   calculate D2E/DX2 analytically            !
 !       A9         95.9184   calculate D2E/DX2 analytically            !
 !       A10       101.6497   calculate D2E/DX2 analytically            !
 !       A11        94.2109   calculate D2E/DX2 analytically            !
 !       D1       -101.9968   calculate D2E/DX2 analytically            !
 !       D2          6.4784   calculate D2E/DX2 analytically            !
 !       D3       -109.9224   calculate D2E/DX2 analytically            !
 !       D4        170.8016   calculate D2E/DX2 analytically            !
 !       D5        174.4781   calculate D2E/DX2 analytically            !
 !       D6        147.876    calculate D2E/DX2 analytically            !
 !       D7        110.888    calculate D2E/DX2 analytically            !
 !       D8        159.4115   calculate D2E/DX2 analytically            !
 !       D9        -32.5448   calculate D2E/DX2 analytically            !
 !       D10       -37.76     calculate D2E/DX2 analytically            !
 ------------------------------------------------------------------------
 Trust Radius=3.00D-01 FncErr=1.00D-07 GrdErr=1.00D-06
 Number of steps in this run=     42 maximum allowed number of steps=    100.
 Search for a saddle point of order  1.
 GradGradGradGradGradGradGradGradGradGradGradGradGradGradGradGradGradGrad

 ---------------------------------------------------------------------------------------------------
                            Z-MATRIX (ANGSTROMS AND DEGREES)
   CD    Cent   Atom    N1       Length/X        N2       Alpha/Y        N3        Beta/Z          J
 ---------------------------------------------------------------------------------------------------
      1      1  C 
      2      2  O        1   2.203291(     1)
      3      3  H        2   0.960000(     2)      1  109.942(    13)
      4      4  H        2   1.044733(     3)      1   71.380(    14)      3 -101.997(    24)      0
      5      5  H        1   1.070000(     4)      2   98.997(    15)      3    6.478(    25)      0
      6      6  H        1   1.070000(     5)      2   76.872(    16)      3 -109.922(    26)      0
      7      7  H        1   2.766076(     6)      2   76.168(    17)      3  170.802(    27)      0
      8      8  H        1   2.887029(     7)      2  111.815(    18)      3  174.478(    28)      0
      9      9  H        1   3.438336(     8)      2   95.766(    19)      3  147.876(    29)      0
     10     10  H        1   2.099214(     9)      2  126.382(    20)      3  110.888(    30)      0
     11     11  C        1   2.546853(    10)      2   95.918(    21)      3  159.411(    31)      0
     12     12  C        1   1.476987(    11)      2  101.650(    22)     11  -32.545(    32)      0
     13     13  O       12   1.430000(    12)      1   94.211(    23)      2  -37.760(    33)      0
 ---------------------------------------------------------------------------------------------------
                         Z-Matrix orientation:                         
 ---------------------------------------------------------------------
 Center     Atomic      Atomic             Coordinates (Angstroms)
 Number     Number       Type             X           Y           Z
 ---------------------------------------------------------------------
      1          6           0        0.000000    0.000000    0.000000
      2          8           0        0.000000    0.000000    2.203291
      3          1           0        0.902439    0.000000    2.530711
      4          1           0       -0.205789   -0.968423    1.869714
      5          1           0        1.050087   -0.119242   -0.167328
      6          1           0       -0.355071    0.979677    0.243019
      7          1           0       -2.651325   -0.429343    0.661298
      8          1           0       -2.667852   -0.257913   -1.072840
      9          1           0       -2.897191   -1.819097   -0.345425
     10          1           0       -0.602565   -1.578956   -1.245196
     11          6           0       -2.371478   -0.890837   -0.262612
     12          6           0       -0.867872   -1.157299   -0.298244
     13          8           0       -0.367488   -1.945660    0.784808
 ---------------------------------------------------------------------
                    Distance matrix (angstroms):
                    1          2          3          4          5
     1  C    0.000000
     2  O    2.203291   0.000000
     3  H    2.686800   0.960000   0.000000
     4  H    2.115661   1.044733   1.613360   0.000000
     5  H    1.070000   2.595522   2.704706   2.539266   0.000000
     6  H    1.070000   2.220024   2.788303   2.542344   1.830431
     7  H    2.766076   3.097032   4.038351   2.780562   3.805685
     8  H    2.887029   4.232846   5.079279   3.901948   3.829132
     9  H    3.438336   4.266003   5.100830   3.588054   4.301422
    10  H    2.099214   3.840345   4.360689   3.198882   2.454348
    11  C    2.546853   3.535275   4.394857   3.040236   3.508781
    12  C    1.476987   2.889674   3.532184   2.274658   2.184781
    13  O    2.129921   2.435720   2.906283   1.469067   2.500377
                    6          7          8          9         10
     6  H    0.000000
     7  H    2.726367   0.000000
     8  H    2.934632   1.742669   0.000000
     9  H    3.826457   1.733596   1.737534   0.000000
    10  H    2.970292   3.025516   2.457696   2.476402   0.000000
    11  C    2.796494   1.070000   1.070000   1.070000   2.137295
    12  C    2.263315   2.152056   2.156113   2.135027   1.070000
    13  O    2.975111   2.744155   3.404559   2.773598   2.076211
                   11         12         13
    11  C    0.000000
    12  C    1.527449   0.000000
    13  O    2.495138   1.430000   0.000000
 Symmetry turned off by external request.
 Stoichiometry    C3H8O2
 Framework group  C1[X(C3H8O2)]
 Deg. of freedom    33
 Full point group                 C1      NOp   1
 Rotational constants (GHZ):      7.0600530      3.2958543      3.1474056
 Standard basis: 6-31++G(d,p) (6D, 7F)
 The following finite field(s) will be applied:
 An electric field of              0.0000  0.0000  0.0025
 Integral buffers will be    131072 words long.
 Raffenetti 2 integral format.
 Two-electron integral symmetry is turned off.
   143 basis functions,   224 primitive gaussians,   143 cartesian basis functions
    21 alpha electrons       21 beta electrons
       nuclear repulsion energy       189.7847448441 Hartrees.
 NAtoms=   13 NActive=   13 NUniq=   13 SFac= 1.00D+00 NAtFMM=   50 NAOKFM=F Big=F
 One-electron integrals computed using PRISM.
 PrsmSu:  requested number of processors reduced to:  10 ShMem   1 Linda.
 NBasis=   143 RedAO= T  NBF=   143
 NBsUse=   143 1.00D-06 NBFU=   143
 The nuclear repulsion energy is now       189.8934683866 hartrees.
 Harris functional with IExCor=  402 diagonalized for initial guess.
 ExpMin= 3.60D-02 ExpMax= 5.48D+03 ExpMxC= 8.25D+02 IAcc=3 IRadAn=         0 AccDes= 0.00D+00
 HarFok:  IExCor=  402 AccDes= 0.00D+00 IRadAn=         0 IDoV= 1
 ScaDFX=  1.000000  1.000000  1.000000  1.000000
 FoFCou: FMM=F IPFlag=           0 FMFlag=      100000 FMFlg1=           0
         NFxFlg=           0 DoJE=T BraDBF=F KetDBF=T FulRan=T
         Omega=  0.000000  0.000000  1.000000  0.000000  0.000000 ICntrl=     500 IOpCl=  0
         NMat0=    1 NMatS0=    1 NMatT0=    0 NMatD0=    1 NMtDS0=    0 NMtDT0=    0
         I1Cent=           4 NGrid=           0.
 Symmetry not used in FoFCou.
 Requested convergence on RMS density matrix=1.00D-08 within 128 cycles.
 Requested convergence on MAX density matrix=1.00D-06.
 Requested convergence on             energy=1.00D-06.
 No special actions if energy rises.
 EnCoef did     2 forward-backward iterations
 EnCoef did     2 forward-backward iterations
 SCF Done:  E(RB3LYP) =  -269.487332225     A.U. after   15 cycles
             Convg  =    0.7122D-08             -V/T =  2.0089
 Range of M.O.s used for correlation:     1   143
 NBasis=   143 NAE=    21 NBE=    21 NFC=     0 NFV=     0
 NROrb=    143 NOA=    21 NOB=    21 NVA=   122 NVB=   122

 **** Warning!!: The largest alpha MO coefficient is  0.34103766D+02

 PrsmSu:  requested number of processors reduced to:  10 ShMem   1 Linda.
 PrsmSu:  requested number of processors reduced to:  17 ShMem   1 Linda.
 Symmetrizing basis deriv contribution to polar:
 IMax=3 JMax=2 DiffMx= 0.00D+00
 G2DrvN: will do     3 centers at a time, making    5 passes doing MaxLOS=2.
 Estimated number of processors is:   15
 Calling FoFCou, ICntrl=  3107 FMM=F I1Cent=   0 AccDes= 0.00D+00.
 CoulSu:  requested number of processors reduced to:  15 ShMem   1 Linda.
 Calling FoFCou, ICntrl=  3107 FMM=F I1Cent=   0 AccDes= 0.00D+00.
 CoulSu:  requested number of processors reduced to:  15 ShMem   1 Linda.
 Calling FoFCou, ICntrl=  3107 FMM=F I1Cent=   0 AccDes= 0.00D+00.
 CoulSu:  requested number of processors reduced to:  15 ShMem   1 Linda.
 Calling FoFCou, ICntrl=  3107 FMM=F I1Cent=   0 AccDes= 0.00D+00.
 CoulSu:  requested number of processors reduced to:  15 ShMem   1 Linda.
 Calling FoFCou, ICntrl=  3107 FMM=F I1Cent=   0 AccDes= 0.00D+00.
 CoulSu:  requested number of processors reduced to:  15 ShMem   1 Linda.
 FoFDir/FoFCou used for L=0 through L=2.
 End of G2Drv Frequency-dependent properties file   721 does not exist.
 End of G2Drv Frequency-dependent properties file   722 does not exist.
          IDoAtm=1111111111111
          Differentiating once with respect to nuclear coordinates.
 PrRfSu:  requested number of processors reduced to:  16 ShMem   1 Linda.
 CalDSu:  requested number of processors reduced to:  22 ShMem   1 Linda.
 PrRfSu:  requested number of processors reduced to:  16 ShMem   1 Linda.
 CalDSu:  requested number of processors reduced to:  22 ShMem   1 Linda.
          There are    42 degrees of freedom in the 1st order CPHF.  IDoFFX=5.
     36 vectors produced by pass  0 Test12= 6.10D-11 2.38D-07 XBig12= 1.41D-01 2.87D-01.
 AX will form    36 AO Fock derivatives at one time.
 PrRfSu:  requested number of processors reduced to:  15 ShMem   1 Linda.
 CalDSu:  requested number of processors reduced to:  19 ShMem   1 Linda.
     36 vectors produced by pass  1 Test12= 6.10D-11 2.38D-07 XBig12= 7.02D-02 7.01D-02.
 PrRfSu:  requested number of processors reduced to:  15 ShMem   1 Linda.
 CalDSu:  requested number of processors reduced to:  19 ShMem   1 Linda.
     36 vectors produced by pass  2 Test12= 6.10D-11 2.38D-07 XBig12= 2.28D-04 2.31D-03.
 PrRfSu:  requested number of processors reduced to:  15 ShMem   1 Linda.
 CalDSu:  requested number of processors reduced to:  19 ShMem   1 Linda.
     36 vectors produced by pass  3 Test12= 6.10D-11 2.38D-07 XBig12= 6.65D-07 1.30D-04.
 PrRfSu:  requested number of processors reduced to:  15 ShMem   1 Linda.
 CalDSu:  requested number of processors reduced to:  19 ShMem   1 Linda.
     17 vectors produced by pass  4 Test12= 6.10D-11 2.38D-07 XBig12= 1.22D-09 5.00D-06.
 PrRfSu:  requested number of processors reduced to:  17 ShMem   1 Linda.
 CalDSu:  requested number of processors reduced to:  23 ShMem   1 Linda.
 Inverted reduced A of dimension   161 with in-core refinement.
 End of Minotr Frequency-dependent properties file   721 does not exist.
 End of Minotr Frequency-dependent properties file   722 does not exist.

 **********************************************************************

            Population analysis using the SCF density.

 **********************************************************************

 Alpha  occ. eigenvalues --  -19.17241 -19.11639 -10.29195 -10.24848 -10.17763
 Alpha  occ. eigenvalues --   -1.02370  -0.95994  -0.77279  -0.71722  -0.60007
 Alpha  occ. eigenvalues --   -0.54061  -0.50103  -0.47594  -0.44157  -0.41217
 Alpha  occ. eigenvalues --   -0.39172  -0.38094  -0.36092  -0.34129  -0.24910
 Alpha  occ. eigenvalues --   -0.24682
 Alpha virt. eigenvalues --   -0.11600  -0.02114   0.00484   0.01488   0.02206
 Alpha virt. eigenvalues --    0.03781   0.04628   0.04966   0.05911   0.07143
 Alpha virt. eigenvalues --    0.09275   0.09688   0.11078   0.12380   0.12629
 Alpha virt. eigenvalues --    0.13827   0.14125   0.14876   0.16079   0.16559
 Alpha virt. eigenvalues --    0.17178   0.18246   0.19617   0.20080   0.20384
 Alpha virt. eigenvalues --    0.22273   0.23935   0.24984   0.26084   0.26572
 Alpha virt. eigenvalues --    0.27696   0.30373   0.31034   0.32989   0.33631
 Alpha virt. eigenvalues --    0.36540   0.37800   0.39019   0.40963   0.44940
 Alpha virt. eigenvalues --    0.63971   0.65539   0.69971   0.71864   0.75110
 Alpha virt. eigenvalues --    0.75850   0.77179   0.78645   0.86823   0.93011
 Alpha virt. eigenvalues --    0.96129   0.97251   0.98863   1.00109   1.04421
 Alpha virt. eigenvalues --    1.06678   1.12847   1.15296   1.16052   1.17752
 Alpha virt. eigenvalues --    1.20259   1.22325   1.29190   1.32657   1.35113
 Alpha virt. eigenvalues --    1.41796   1.43243   1.47073   1.52221   1.54922
 Alpha virt. eigenvalues --    1.60756   1.63313   1.68502   1.72893   1.77882
 Alpha virt. eigenvalues --    1.78558   1.82143   1.83751   1.87888   1.90881
 Alpha virt. eigenvalues --    2.00165   2.03557   2.04690   2.09676   2.13412
 Alpha virt. eigenvalues --    2.14582   2.17524   2.23426   2.26903   2.31088
 Alpha virt. eigenvalues --    2.35087   2.36546   2.39414   2.41165   2.45980
 Alpha virt. eigenvalues --    2.54383   2.55702   2.60373   2.66377   2.67401
 Alpha virt. eigenvalues --    2.73935   2.76307   2.81785   2.85288   2.87636
 Alpha virt. eigenvalues --    2.95526   3.01498   3.06481   3.09012   3.31890
 Alpha virt. eigenvalues --    3.36378   3.40679   3.43006   3.49184   3.52221
 Alpha virt. eigenvalues --    3.54827   3.72470   4.20320   4.33902   4.41808
 Alpha virt. eigenvalues --    4.50690   4.68136
          Condensed to atoms (all electrons):
              1          2          3          4          5          6
     1  C    5.684644   0.008496   0.005621   0.029308   0.359464   0.401608
     2  O    0.008496   8.470626   0.238915   0.131893  -0.004637  -0.058096
     3  H    0.005621   0.238915   0.409480  -0.008469  -0.006707   0.003900
     4  H    0.029308   0.131893  -0.008469   0.343011  -0.004873   0.008675
     5  H    0.359464  -0.004637  -0.006707  -0.004873   0.572235  -0.059765
     6  H    0.401608  -0.058096   0.003900   0.008675  -0.059765   0.534282
     7  H   -0.018566   0.006563  -0.000458   0.002820  -0.001907   0.004906
     8  H    0.004782  -0.000219   0.000033   0.000966   0.000882  -0.004038
     9  H    0.002033   0.001596  -0.000101  -0.002059  -0.002771   0.001474
    10  H   -0.069198  -0.008496   0.001580   0.011731  -0.045043   0.019896
    11  C    0.335451  -0.046826   0.005106   0.014868   0.027912   0.015415
    12  C   -0.549432   0.108935  -0.015773  -0.101765  -0.041481  -0.089372
    13  O   -0.000611  -0.158333   0.010407   0.133302   0.002687   0.017915
              7          8          9         10         11         12
     1  C   -0.018566   0.004782   0.002033  -0.069198   0.335451  -0.549432
     2  O    0.006563  -0.000219   0.001596  -0.008496  -0.046826   0.108935
     3  H   -0.000458   0.000033  -0.000101   0.001580   0.005106  -0.015773
     4  H    0.002820   0.000966  -0.002059   0.011731   0.014868  -0.101765
     5  H   -0.001907   0.000882  -0.002771  -0.045043   0.027912  -0.041481
     6  H    0.004906  -0.004038   0.001474   0.019896   0.015415  -0.089372
     7  H    0.516421  -0.036646  -0.021611   0.009279   0.408719  -0.044571
     8  H   -0.036646   0.548791  -0.017632  -0.006863   0.404624  -0.049857
     9  H   -0.021611  -0.017632   0.502121  -0.004616   0.396743  -0.023178
    10  H    0.009279  -0.006863  -0.004616   0.696771  -0.077874   0.364026
    11  C    0.408719   0.404624   0.396743  -0.077874   5.824177  -0.649302
    12  C   -0.044571  -0.049857  -0.023178   0.364026  -0.649302   6.681894
    13  O    0.003056   0.008138  -0.005131  -0.042562  -0.097365   0.228683
             13
     1  C   -0.000611
     2  O   -0.158333
     3  H    0.010407
     4  H    0.133302
     5  H    0.002687
     6  H    0.017915
     7  H    0.003056
     8  H    0.008138
     9  H   -0.005131
    10  H   -0.042562
    11  C   -0.097365
    12  C    0.228683
    13  O    8.483144
 Mulliken atomic charges:
              1
     1  C   -0.193601
     2  O   -0.690416
     3  H    0.356467
     4  H    0.440591
     5  H    0.204006
     6  H    0.203200
     7  H    0.171995
     8  H    0.147039
     9  H    0.173132
    10  H    0.151370
    11  C   -0.561646
    12  C    0.181194
    13  O   -0.583331
 Sum of Mulliken atomic charges =   0.00000
 Mulliken charges with hydrogens summed into heavy atoms:
              1
     1  C    0.213605
     2  O    0.106642
    11  C   -0.069480
    12  C    0.332563
    13  O   -0.583331
 Sum of Mulliken charges with hydrogens summed into heavy atoms =   0.00000
 APT atomic charges:
              1
     1  C   -0.376009
     2  O   -0.881609
     3  H    0.607450
     4  H    0.357000
     5  H    0.395469
     6  H    0.373339
     7  H    0.324512
     8  H    0.356099
     9  H    0.615028
    10  H    0.403455
    11  C   -1.276490
    12  C   -0.275878
    13  O   -0.622368
 Sum of APT charges=   0.00000
 APT Atomic charges with hydrogens summed into heavy atoms:
              1
     1  C    0.392800
     2  O    0.082842
     3  H    0.000000
     4  H    0.000000
     5  H    0.000000
     6  H    0.000000
     7  H    0.000000
     8  H    0.000000
     9  H    0.000000
    10  H    0.000000
    11  C    0.019149
    12  C    0.127577
    13  O   -0.622368
 Sum of APT charges=   0.00000
 Electronic spatial extent (au):  <R**2>=            695.7673
 Charge=              0.0000 electrons
 Dipole moment (field-independent basis, Debye):
    X=              1.1390    Y=              2.6152    Z=             -2.4406  Tot=              3.7540
 Quadrupole moment (field-independent basis, Debye-Ang):
   XX=            -29.1474   YY=            -40.0459   ZZ=            -34.0702
   XY=              0.4583   XZ=              4.6403   YZ=              2.3225
 Traceless Quadrupole moment (field-independent basis, Debye-Ang):
   XX=              5.2738   YY=             -5.6247   ZZ=              0.3509
   XY=              0.4583   XZ=              4.6403   YZ=              2.3225
 Octapole moment (field-independent basis, Debye-Ang**2):
  XXX=             73.6807  YYY=             94.6224  ZZZ=            -51.0123  XYY=             23.9108
  XXY=             22.9727  XXZ=            -13.3165  XZZ=             35.6070  YZZ=             21.8680
  YYZ=            -24.6885  XYZ=             -1.4799
 Hexadecapole moment (field-independent basis, Debye-Ang**3):
 XXXX=           -343.4196 YYYY=           -313.0704 ZZZZ=           -287.8990 XXXY=            -71.4547
 XXXZ=            -12.3309 YYYX=            -77.3710 YYYZ=             35.4577 ZZZX=             13.6017
 ZZZY=              6.5647 XXYY=            -99.2435 XXZZ=            -95.0038 YYZZ=            -94.0358
 XXYZ=              7.5357 YYXZ=             -0.7038 ZZXY=            -26.2238
 N-N= 1.898934683866D+02 E-N=-1.009887618326D+03  KE= 2.671142601303D+02
  Exact polarizability:   0.000   0.000   0.000   0.000   0.000   0.000
 Approx polarizability:  63.890  11.106 101.735   3.569  -4.901  86.044
 PrsmSu:  requested number of processors reduced to:  10 ShMem   1 Linda.
 PrsmSu:  requested number of processors reduced to:  10 ShMem   1 Linda.
 Calling FoFJK, ICntrl=    100147 FMM=F ISym2X=0 I1Cent= 0 IOpClX= 0 NMat=1 NMatS=1 NMatT=0.
 CoulSu:  requested number of processors reduced to:  10 ShMem   1 Linda.
 CalDSu:  requested number of processors reduced to:  23 ShMem   1 Linda.
 -------------------------------------------------------------------
 Center     Atomic                   Forces (Hartrees/Bohr)
 Number     Number              X              Y              Z
 -------------------------------------------------------------------
      1        6          -0.007065794   -0.010185574    0.000535106
      2        8          -0.007005410    0.003043926   -0.000046567
      3        1           0.007595994    0.000052815    0.002019686
      4        1          -0.000506956   -0.003421910   -0.002130683
      5        1           0.010379111   -0.001248481   -0.001928501
      6        1          -0.003685939    0.009110407    0.001877391
      7        1          -0.004256822    0.007502932    0.015025668
      8        1          -0.004613864    0.010915434   -0.014362309
      9        1          -0.007719121   -0.014495421   -0.001515159
     10        1           0.006564912   -0.010413636   -0.018135947
     11        6           0.016855794   -0.004336591    0.002195403
     12        6          -0.001580519    0.003942435    0.027221797
     13        8          -0.004961385    0.009533665   -0.010755885
 -------------------------------------------------------------------
 Cartesian Forces:  Max     0.027221797 RMS     0.009059711
 -----------------------------------------------------------------------------------------------
                       Internal Coordinate Forces (Hartree/Bohr or radian)
  Cent   Atom   N1       Length/X         N2         Alpha/Y        N3         Beta/Z          J
 -----------------------------------------------------------------------------------------------
      1  C 
      2  O        1  -0.000158(     1)
      3  H        2   0.007829(     2)      1  -0.001256(    13)
      4  H        2   0.003952(     3)      1  -0.001810(    14)      3   0.000403(    24)     0
      5  H        1   0.010627(     4)      2   0.000546(    15)      3   0.000139(    25)     0
      6  H        1   0.009991(     5)      2   0.000813(    16)      3  -0.000711(    26)     0
      7  H        1   0.006508(     6)      2  -0.072511(    17)      3   0.041046(    27)     0
      8  H        1   0.008626(     7)      2   0.065564(    18)      3   0.057279(    28)     0
      9  H        1   0.014325(     8)      2   0.000496(    19)      3  -0.052826(    29)     0
     10  H        1   0.016706(     9)      2   0.040535(    20)      3  -0.031446(    30)     0
     11  C        1  -0.014405(    10)      2  -0.003436(    21)      3  -0.013025(    31)     0
     12  C        1  -0.010040(    11)      2  -0.043948(    22)     11   0.034785(    32)     0
     13  O       12  -0.015138(    12)      1  -0.003445(    23)      2   0.001709(    33)     0
 -----------------------------------------------------------------------------------------------
 Internal  Forces:  Max     0.072511065 RMS     0.027367966

 GradGradGradGradGradGradGradGradGradGradGradGradGradGradGradGradGradGrad
 Berny optimization.
 Search for a saddle point.
 Step number   1 out of a maximum of   42
 All quantities printed in internal units (Hartrees-Bohrs-Radians)
 Swaping is turned off.
 Second derivative matrix not updated -- analytic derivatives used.
 ITU=  0
     Eigenvalues ---   -0.10723  -0.04720   0.00272   0.01103   0.01313
     Eigenvalues ---    0.03229   0.06016   0.06298   0.07520   0.09454
     Eigenvalues ---    0.13055   0.14877   0.16476   0.23566   0.27422
     Eigenvalues ---    0.29950   0.33000   0.39537   0.40331   0.40529
     Eigenvalues ---    0.45671   0.55852   0.57711   0.79051   1.21986
     Eigenvalues ---    2.49949   3.22207   3.78756   6.38510   7.50719
     Eigenvalues ---   18.75687  22.05008
 Eigenvectors required to have negative eigenvalues:
                          D4        D5        A7        A6        A11
   1                    0.45854  -0.40757  -0.31885   0.31680   0.26591
                          A10       A5        A8        B6        B2
   1                   -0.25555   0.24021  -0.22160   0.20600   0.19847
 RFO step:  Lambda0=1.835217727D-05 Lambda=-4.72611220D-02.
 Linear search not attempted -- option 19 set.
 Maximum step size (   0.300) exceeded in Quadratic search.
    -- Step size scaled by   0.398
 Variable       Old X    -DE/DX   Delta X   Delta X   Delta X     New X
                                 (Linear)    (Quad)   (Total)
    B1        1.81414   0.00783   0.00000   0.00652   0.00652   1.82065
    B2        1.97426   0.00395   0.00000   0.09836   0.09836   2.07262
    B3        2.02201   0.01063   0.00000   0.01145   0.01145   2.03346
    B4        2.02201   0.00999   0.00000   0.01432   0.01432   2.03633
    B5        5.22713   0.00651   0.00000   0.08841   0.08841   5.31554
    B6        5.45569   0.00863   0.00000  -0.11079  -0.11079   5.34490
    B7        6.49751   0.01433   0.00000   0.03165   0.03165   6.52916
    B8        3.96694   0.01671   0.00000  -0.04003  -0.04003   3.92691
    B9        4.81286  -0.01440   0.00000  -0.00371  -0.00371   4.80914
   B10        2.79110  -0.01004   0.00000   0.01650   0.01650   2.80760
   B11        2.70231  -0.01514   0.00000  -0.02077  -0.02077   2.68154
    A1        1.91884  -0.00126   0.00000  -0.04692  -0.04692   1.87193
    A2        1.24581  -0.00181   0.00000  -0.01759  -0.01759   1.22823
    A3        1.72782   0.00055   0.00000  -0.02528  -0.02528   1.70254
    A4        1.34168   0.00081   0.00000   0.10323   0.10323   1.44490
    A5        1.32938  -0.07251   0.00000  -0.07179  -0.07179   1.25760
    A6        1.95154   0.06556   0.00000  -0.07077  -0.07077   1.88076
    A7        1.67143   0.00050   0.00000   0.00548   0.00548   1.67691
    A8        2.20579   0.04053   0.00000  -0.05968  -0.05968   2.14611
    A9        1.67409  -0.00344   0.00000  -0.04657  -0.04657   1.62752
   A10        1.77412  -0.04395   0.00000  -0.08775  -0.08775   1.68637
   A11        1.64429  -0.00344   0.00000   0.11164   0.11164   1.75593
    D1       -1.78018   0.00040   0.00000  -0.00392  -0.00392  -1.78410
    D2        0.11307   0.00014   0.00000   0.02235   0.02235   0.13542
    D3       -1.91851  -0.00071   0.00000   0.01901   0.01901  -1.89949
    D4        2.98105   0.04105   0.00000  -0.05640  -0.05640   2.92465
    D5        3.04522   0.05728   0.00000   0.04468   0.04468   3.08990
    D6        2.58092  -0.05283   0.00000   0.00184   0.00184   2.58276
    D7        1.93536  -0.03145   0.00000  -0.00763  -0.00763   1.92773
    D8        2.78226  -0.01303   0.00000  -0.00382  -0.00382   2.77843
    D9       -0.56801   0.03478   0.00000  -0.00764  -0.00764  -0.57566
   D10       -0.65904   0.00171   0.00000   0.02128   0.02128  -0.63776
         Item               Value     Threshold  Converged?
 Maximum Force            0.072511     0.000450     NO 
 RMS     Force            0.027792     0.000300     NO 
 Maximum Displacement     0.111644     0.001800     NO 
 RMS     Displacement     0.053033     0.001200     NO 
 Predicted change in Energy=-4.182628D-03
 GradGradGradGradGradGradGradGradGradGradGradGradGradGradGradGradGradGrad

 ---------------------------------------------------------------------------------------------------
                            Z-MATRIX (ANGSTROMS AND DEGREES)
   CD    Cent   Atom    N1       Length/X        N2       Alpha/Y        N3        Beta/Z          J
 ---------------------------------------------------------------------------------------------------
      1      1  C 
      2      2  O        1   2.203291(     1)
      3      3  H        2   0.963448(     2)      1  107.254(    13)
      4      4  H        2   1.096783(     3)      1   70.372(    14)      3 -102.221(    24)      0
      5      5  H        1   1.076061(     4)      2   97.548(    15)      3    7.759(    25)      0
      6      6  H        1   1.077580(     5)      2   82.787(    16)      3 -108.833(    26)      0
      7      7  H        1   2.812861(     6)      2   72.055(    17)      3  167.570(    27)      0
      8      8  H        1   2.828400(     7)      2  107.760(    18)      3  177.038(    28)      0
      9      9  H        1   3.455084(     8)      2   96.080(    19)      3  147.981(    29)      0
     10     10  H        1   2.078029(     9)      2  122.963(    20)      3  110.451(    30)      0
     11     11  C        1   2.544888(    10)      2   93.250(    21)      3  159.192(    31)      0
     12     12  C        1   1.485716(    11)      2   96.622(    22)     11  -32.983(    32)      0
     13     13  O       12   1.419011(    12)      1  100.608(    23)      2  -36.541(    33)      0
 ---------------------------------------------------------------------------------------------------
                         Z-Matrix orientation:                         
 ---------------------------------------------------------------------
 Center     Atomic      Atomic             Coordinates (Angstroms)
 Number     Number       Type             X           Y           Z
 ---------------------------------------------------------------------
      1          6           0        0.000000    0.000000    0.000000
      2          8           0        0.000000    0.000000    2.203291
      3          1           0        0.920095    0.000000    2.489050
      4          1           0       -0.218684   -1.009643    1.834871
      5          1           0        1.056970   -0.144016   -0.141354
      6          1           0       -0.345101    1.011819    0.135300
      7          1           0       -2.613298   -0.576006    0.866649
      8          1           0       -2.690010   -0.139182   -0.862741
      9          1           0       -2.913002   -1.821568   -0.365942
     10          1           0       -0.609190   -1.633619   -1.130655
     11          6           0       -2.375081   -0.902568   -0.144289
     12          6           0       -0.871817   -1.190770   -0.171330
     13          8           0       -0.431388   -1.994968    0.911666
 ---------------------------------------------------------------------
                    Distance matrix (angstroms):
                    1          2          3          4          5
     1  C    0.000000
     2  O    2.203291   0.000000
     3  H    2.653666   0.963448   0.000000
     4  H    2.105695   1.096783   1.656546   0.000000
     5  H    1.076061   2.575905   2.637898   2.506405   0.000000
     6  H    1.077580   2.327973   2.857383   2.644017   1.838013
     7  H    2.812861   2.991274   3.930500   2.619097   3.830607
     8  H    2.828400   4.081186   4.928157   3.760620   3.815794
     9  H    3.455084   4.290064   5.114853   3.572415   4.315704
    10  H    2.078029   3.762315   4.255548   3.055517   2.444120
    11  C    2.544888   3.459302   4.313616   2.928922   3.514880
    12  C    1.485716   2.795858   3.421477   2.117600   2.194724
    13  O    2.235426   2.415427   2.880025   1.366900   2.598093
                    6          7          8          9         10
     6  H    0.000000
     7  H    2.863700   0.000000
     8  H    2.796335   1.785354   0.000000
     9  H    3.856610   1.777787   1.768320   0.000000
    10  H    2.944610   3.020632   2.575836   2.434679   0.000000
    11  C    2.804259   1.088754   1.094583   1.087681   2.150749
    12  C    2.285356   2.118511   2.211270   2.145277   1.088758
    13  O    3.106599   2.603116   3.419626   2.796563   2.081649
                   11         12         13
    11  C    0.000000
    12  C    1.530880   0.000000
    13  O    2.467047   1.419011   0.000000
 Symmetry turned off by external request.
 Stoichiometry    C3H8O2
 Framework group  C1[X(C3H8O2)]
 Deg. of freedom    33
 Full point group                 C1      NOp   1
 Rotational constants (GHZ):      6.7857837      3.4266729      3.2078423
 Standard basis: 6-31++G(d,p) (6D, 7F)
 The following finite field(s) will be applied:
 An electric field of              0.0000  0.0000  0.0025
 Integral buffers will be    131072 words long.
 Raffenetti 2 integral format.
 Two-electron integral symmetry is turned off.
   143 basis functions,   224 primitive gaussians,   143 cartesian basis functions
    21 alpha electrons       21 beta electrons
       nuclear repulsion energy       189.8379781022 Hartrees.
 NAtoms=   13 NActive=   13 NUniq=   13 SFac= 1.00D+00 NAtFMM=   50 NAOKFM=F Big=F
 One-electron integrals computed using PRISM.
 PrsmSu:  requested number of processors reduced to:  10 ShMem   1 Linda.
 NBasis=   143 RedAO= T  NBF=   143
 NBsUse=   143 1.00D-06 NBFU=   143
 The nuclear repulsion energy is now       189.9601069419 hartrees.
 Initial guess read from the read-write file.
 B after Tr=     0.000000    0.000000    0.000000
         Rot=    1.000000    0.000000    0.000000    0.000000 Ang=   0.00 deg.
 Harris functional with IExCor=  402 diagonalized for initial guess.
 ExpMin= 3.60D-02 ExpMax= 5.48D+03 ExpMxC= 8.25D+02 IAcc=3 IRadAn=         0 AccDes= 0.00D+00
 HarFok:  IExCor=  402 AccDes= 0.00D+00 IRadAn=         0 IDoV= 1
 ScaDFX=  1.000000  1.000000  1.000000  1.000000
 FoFCou: FMM=F IPFlag=           0 FMFlag=      100000 FMFlg1=           0
         NFxFlg=           0 DoJE=T BraDBF=F KetDBF=T FulRan=T
         Omega=  0.000000  0.000000  1.000000  0.000000  0.000000 ICntrl=     500 IOpCl=  0
         NMat0=    1 NMatS0=    1 NMatT0=    0 NMatD0=    1 NMtDS0=    0 NMtDT0=    0
         I1Cent=           4 NGrid=           0.
 Symmetry not used in FoFCou.
 Requested convergence on RMS density matrix=1.00D-08 within 128 cycles.
 Requested convergence on MAX density matrix=1.00D-06.
 Requested convergence on             energy=1.00D-06.
 No special actions if energy rises.
 SCF Done:  E(RB3LYP) =  -269.490530708     A.U. after   14 cycles
             Convg  =    0.4464D-08             -V/T =  2.0095
 PrsmSu:  requested number of processors reduced to:  10 ShMem   1 Linda.
 PrsmSu:  requested number of processors reduced to:  23 ShMem   1 Linda.
 Calling FoFJK, ICntrl=      2127 FMM=F ISym2X=0 I1Cent= 0 IOpClX= 0 NMat=1 NMatS=1 NMatT=0.
 CoulSu:  requested number of processors reduced to:  16 ShMem   1 Linda.
 -------------------------------------------------------------------
 Center     Atomic                   Forces (Hartrees/Bohr)
 Number     Number              X              Y              Z
 -------------------------------------------------------------------
      1        6          -0.002849250   -0.002766468    0.019666930
      2        8          -0.003560274    0.005855881   -0.017154815
      3        1           0.005069824    0.000659067    0.000230226
      4        1          -0.002721130   -0.013005387   -0.003307540
      5        1           0.007044062   -0.000882792   -0.000845174
      6        1          -0.002875557    0.005952252   -0.002618615
      7        1          -0.005979729    0.001568900    0.002168887
      8        1           0.002239992    0.001221840   -0.001763781
      9        1          -0.002719930   -0.002737846    0.001300643
     10        1           0.004582293   -0.006217187   -0.009167769
     11        6           0.005293090   -0.000712695    0.003121359
     12        6          -0.000478422    0.001175572    0.017897930
     13        8          -0.003044968    0.009888864   -0.009528280
 -------------------------------------------------------------------
 Cartesian Forces:  Max     0.019666930 RMS     0.006850134
 -----------------------------------------------------------------------------------------------
                       Internal Coordinate Forces (Hartree/Bohr or radian)
  Cent   Atom   N1       Length/X         N2         Alpha/Y        N3         Beta/Z          J
 -----------------------------------------------------------------------------------------------
      1  C 
      2  O        1  -0.020232(     1)
      3  H        2   0.004910(     2)      1  -0.002337(    13)
      4  H        2   0.013626(     3)      1   0.002793(    14)      3   0.000183(    24)     0
      5  H        1   0.007148(     4)      2  -0.000192(    15)      3  -0.000154(    25)     0
      6  H        1   0.006181(     5)      2   0.006968(    16)      3  -0.001617(    26)     0
      7  H        1   0.005902(     6)      2  -0.001957(    17)      3   0.014257(    27)     0
      8  H        1  -0.001653(     7)      2   0.012728(    18)      3   0.005622(    28)     0
      9  H        1   0.003599(     8)      2  -0.011043(    19)      3  -0.005709(    29)     0
     10  H        1   0.008532(     9)      2   0.021180(    20)      3  -0.021303(    30)     0
     11  C        1  -0.004864(    10)      2  -0.013707(    21)      3   0.010327(    31)     0
     12  C        1  -0.007766(    11)      2  -0.026775(    22)     11   0.022554(    32)     0
     13  O       12  -0.013821(    12)      1  -0.006809(    23)      2   0.001602(    33)     0
 -----------------------------------------------------------------------------------------------
 Internal  Forces:  Max     0.026774610 RMS     0.011278738

 GradGradGradGradGradGradGradGradGradGradGradGradGradGradGradGradGradGrad
 Berny optimization.
 Search for a saddle point.
 Step number   2 out of a maximum of   42
 All quantities printed in internal units (Hartrees-Bohrs-Radians)
 Swaping is turned off.
 Update second derivatives using D2CorN and points    1    2
 ITU=  0  0
     Eigenvalues ---   -0.11175  -0.01353   0.00280   0.01103   0.01313
     Eigenvalues ---    0.03244   0.06017   0.06432   0.07527   0.09453
     Eigenvalues ---    0.13068   0.14894   0.16488   0.23625   0.27474
     Eigenvalues ---    0.29950   0.33005   0.39529   0.40331   0.40505
     Eigenvalues ---    0.45698   0.55848   0.57696   0.79065   1.21976
     Eigenvalues ---    2.49945   3.22206   3.78760   6.38486   7.51241
     Eigenvalues ---   18.75753  22.05012
 Eigenvectors required to have negative eigenvalues:
                          D4        D5        A11       A10       A7
   1                    0.40778  -0.36916   0.33756  -0.31547  -0.31199
                          B2        A4        A8        A6        A5
   1                    0.27248   0.26960  -0.26357   0.25333   0.18441
 RFO step:  Lambda0=2.102185811D-03 Lambda=-1.50106137D-02.
 Linear search not attempted -- option 19 set.
 Maximum step size (   0.300) exceeded in Quadratic search.
    -- Step size scaled by   0.389
 Variable       Old X    -DE/DX   Delta X   Delta X   Delta X     New X
                                 (Linear)    (Quad)   (Total)
    B1        1.82065   0.00491   0.00000   0.00410   0.00410   1.82475
    B2        2.07262   0.01363   0.00000   0.08124   0.08124   2.15386
    B3        2.03346   0.00715   0.00000   0.00685   0.00685   2.04031
    B4        2.03633   0.00618   0.00000   0.00796   0.00796   2.04429
    B5        5.31554   0.00590   0.00000   0.13536   0.13536   5.45090
    B6        5.34490  -0.00165   0.00000  -0.15439  -0.15439   5.19052
    B7        6.52916   0.00360   0.00000   0.02355   0.02355   6.55272
    B8        3.92691   0.00853   0.00000  -0.01692  -0.01692   3.90998
    B9        4.80914  -0.00486   0.00000  -0.00374  -0.00374   4.80540
   B10        2.80760  -0.00777   0.00000   0.00225   0.00225   2.80985
   B11        2.68154  -0.01382   0.00000  -0.01541  -0.01541   2.66613
    A1        1.87193  -0.00234   0.00000  -0.02944  -0.02944   1.84249
    A2        1.22823   0.00279   0.00000  -0.01067  -0.01067   1.21756
    A3        1.70254  -0.00019   0.00000   0.00119   0.00119   1.70372
    A4        1.44490   0.00697   0.00000   0.06075   0.06075   1.50565
    A5        1.25760  -0.00196   0.00000  -0.07967  -0.07967   1.17792
    A6        1.88076   0.01273   0.00000  -0.09350  -0.09350   1.78726
    A7        1.67691  -0.01104   0.00000   0.02354   0.02354   1.70045
    A8        2.14611   0.02118   0.00000  -0.02704  -0.02704   2.11907
    A9        1.62752  -0.01371   0.00000  -0.04785  -0.04785   1.57967
   A10        1.68637  -0.02677   0.00000  -0.04717  -0.04717   1.63920
   A11        1.75593  -0.00681   0.00000   0.03860   0.03860   1.79453
    D1       -1.78410   0.00018   0.00000   0.00356   0.00356  -1.78054
    D2        0.13542  -0.00015   0.00000   0.01494   0.01494   0.15036
    D3       -1.89949  -0.00162   0.00000   0.01273   0.01273  -1.88676
    D4        2.92465   0.01426   0.00000  -0.07474  -0.07474   2.84991
    D5        3.08990   0.00562   0.00000   0.07653   0.07653   3.16643
    D6        2.58276  -0.00571   0.00000   0.01569   0.01569   2.59845
    D7        1.92773  -0.02130   0.00000   0.02325   0.02325   1.95099
    D8        2.77843   0.01033   0.00000   0.00635   0.00635   2.78478
    D9       -0.57566   0.02255   0.00000   0.00095   0.00095  -0.57470
   D10       -0.63776   0.00160   0.00000  -0.01716  -0.01716  -0.65492
         Item               Value     Threshold  Converged?
 Maximum Force            0.026775     0.000450     NO 
 RMS     Force            0.010881     0.000300     NO 
 Maximum Displacement     0.154387     0.001800     NO 
 RMS     Displacement     0.053033     0.001200     NO 
 Predicted change in Energy=-2.039794D-03
 GradGradGradGradGradGradGradGradGradGradGradGradGradGradGradGradGradGrad

 ---------------------------------------------------------------------------------------------------
                            Z-MATRIX (ANGSTROMS AND DEGREES)
   CD    Cent   Atom    N1       Length/X        N2       Alpha/Y        N3        Beta/Z          J
 ---------------------------------------------------------------------------------------------------
      1      1  C 
      2      2  O        1   2.203291(     1)
      3      3  H        2   0.965617(     2)      1  105.567(    13)
      4      4  H        2   1.139776(     3)      1   69.761(    14)      3 -102.017(    24)      0
      5      5  H        1   1.079686(     4)      2   97.616(    15)      3    8.615(    25)      0
      6      6  H        1   1.081794(     5)      2   86.268(    16)      3 -108.103(    26)      0
      7      7  H        1   2.884493(     6)      2   67.490(    17)      3  163.288(    27)      0
      8      8  H        1   2.746703(     7)      2  102.403(    18)      3  181.423(    28)      0
      9      9  H        1   3.467548(     8)      2   97.429(    19)      3  148.880(    29)      0
     10     10  H        1   2.069075(     9)      2  121.414(    20)      3  111.783(    30)      0
     11     11  C        1   2.542909(    10)      2   90.509(    21)      3  159.556(    31)      0
     12     12  C        1   1.486909(    11)      2   93.919(    22)     11  -32.928(    32)      0
     13     13  O       12   1.410854(    12)      1  102.819(    23)      2  -37.524(    33)      0
 ---------------------------------------------------------------------------------------------------
                         Z-Matrix orientation:                         
 ---------------------------------------------------------------------
 Center     Atomic      Atomic             Coordinates (Angstroms)
 Number     Number       Type             X           Y           Z
 ---------------------------------------------------------------------
      1          6           0        0.000000    0.000000    0.000000
      2          8           0        0.000000    0.000000    2.203291
      3          1           0        0.930196    0.000000    2.462428
      4          1           0       -0.222658   -1.045968    1.809000
      5          1           0        1.058086   -0.160305   -0.143099
      6          1           0       -0.335435    1.026062    0.070423
      7          1           0       -2.552175   -0.766289    1.104310
      8          1           0       -2.681773    0.066614   -0.589942
      9          1           0       -2.943608   -1.777091   -0.448337
     10          1           0       -0.655283   -1.639713   -1.078431
     11          6           0       -2.382651   -0.888172   -0.022573
     12          6           0       -0.885042   -1.190491   -0.101633
     13          8           0       -0.443397   -2.000891    0.965472
 ---------------------------------------------------------------------
                    Distance matrix (angstroms):
                    1          2          3          4          5
     1  C    0.000000
     2  O    2.203291   0.000000
     3  H    2.632265   0.965617   0.000000
     4  H    2.101453   1.139776   1.688220   0.000000
     5  H    1.079686   2.578912   2.613584   2.497077   0.000000
     6  H    1.081794   2.390491   2.894186   2.707153   1.842542
     7  H    2.884493   2.882457   3.815573   2.449788   3.867458
     8  H    2.746703   3.872788   4.729452   3.611095   3.773289
     9  H    3.467548   4.342121   5.161101   3.610219   4.326745
    10  H    2.069075   3.726628   4.211899   2.979423   2.449312
    11  C    2.542909   3.379400   4.235450   2.836394   3.518947
    12  C    1.486909   2.741029   3.359578   2.027352   2.199716
    13  O    2.265458   2.394235   2.851526   1.293114   2.621285
                    6          7          8          9         10
     6  H    0.000000
     7  H    3.032388   0.000000
     8  H    2.619527   1.892356   0.000000
     9  H    3.863851   1.893582   1.867581   0.000000
    10  H    2.920364   3.020832   2.693852   2.377462   0.000000
    11  C    2.804288   1.146062   1.150217   1.134075   2.159503
    12  C    2.290148   2.100851   2.246553   2.168409   1.099421
    13  O    3.158356   2.447542   3.421142   2.880972   2.086357
                   11         12         13
    11  C    0.000000
    12  C    1.529863   0.000000
    13  O    2.444398   1.410854   0.000000
 Symmetry turned off by external request.
 Stoichiometry    C3H8O2
 Framework group  C1[X(C3H8O2)]
 Deg. of freedom    33
 Full point group                 C1      NOp   1
 Rotational constants (GHZ):      6.6105297      3.5280765      3.2930889
 Standard basis: 6-31++G(d,p) (6D, 7F)
 The following finite field(s) will be applied:
 An electric field of              0.0000  0.0000  0.0025
 Integral buffers will be    131072 words long.
 Raffenetti 2 integral format.
 Two-electron integral symmetry is turned off.
   143 basis functions,   224 primitive gaussians,   143 cartesian basis functions
    21 alpha electrons       21 beta electrons
       nuclear repulsion energy       190.1104187141 Hartrees.
 NAtoms=   13 NActive=   13 NUniq=   13 SFac= 1.00D+00 NAtFMM=   50 NAOKFM=F Big=F
 One-electron integrals computed using PRISM.
 PrsmSu:  requested number of processors reduced to:  10 ShMem   1 Linda.
 NBasis=   143 RedAO= T  NBF=   143
 NBsUse=   143 1.00D-06 NBFU=   143
 The nuclear repulsion energy is now       190.2417131993 hartrees.
 Initial guess read from the read-write file.
 B after Tr=     0.000000    0.000000    0.000000
         Rot=    1.000000    0.000000    0.000000    0.000000 Ang=   0.00 deg.
 Harris functional with IExCor=  402 diagonalized for initial guess.
 ExpMin= 3.60D-02 ExpMax= 5.48D+03 ExpMxC= 8.25D+02 IAcc=3 IRadAn=         0 AccDes= 0.00D+00
 HarFok:  IExCor=  402 AccDes= 0.00D+00 IRadAn=         0 IDoV= 1
 ScaDFX=  1.000000  1.000000  1.000000  1.000000
 FoFCou: FMM=F IPFlag=           0 FMFlag=      100000 FMFlg1=           0
         NFxFlg=           0 DoJE=T BraDBF=F KetDBF=T FulRan=T
         Omega=  0.000000  0.000000  1.000000  0.000000  0.000000 ICntrl=     500 IOpCl=  0
         NMat0=    1 NMatS0=    1 NMatT0=    0 NMatD0=    1 NMtDS0=    0 NMtDT0=    0
         I1Cent=           4 NGrid=           0.
 Symmetry not used in FoFCou.
 Requested convergence on RMS density matrix=1.00D-08 within 128 cycles.
 Requested convergence on MAX density matrix=1.00D-06.
 Requested convergence on             energy=1.00D-06.
 No special actions if energy rises.
 SCF Done:  E(RB3LYP) =  -269.486298490     A.U. after   14 cycles
             Convg  =    0.2551D-08             -V/T =  2.0103
 PrsmSu:  requested number of processors reduced to:  10 ShMem   1 Linda.
 PrsmSu:  requested number of processors reduced to:  23 ShMem   1 Linda.
 Calling FoFJK, ICntrl=      2127 FMM=F ISym2X=0 I1Cent= 0 IOpClX= 0 NMat=1 NMatS=1 NMatT=0.
 CoulSu:  requested number of processors reduced to:  16 ShMem   1 Linda.
 -------------------------------------------------------------------
 Center     Atomic                   Forces (Hartrees/Bohr)
 Number     Number              X              Y              Z
 -------------------------------------------------------------------
      1        6          -0.000615232    0.001887373    0.028613452
      2        8           0.000139774    0.009538131   -0.023242137
      3        1           0.003283606    0.001383617   -0.000213780
      4        1          -0.003634724   -0.019471559   -0.004148003
      5        1           0.004811585   -0.000836740   -0.000474633
      6        1          -0.002338514    0.003288592   -0.003769720
      7        1          -0.008038271   -0.001681350   -0.031310216
      8        1           0.006824696   -0.025534054    0.014126311
      9        1           0.007278390    0.020905729    0.013851078
     10        1           0.003467550   -0.004084244   -0.004222969
     11        6          -0.013261438    0.006401010    0.008788607
     12        6           0.003006784   -0.000019135    0.009865507
     13        8          -0.000924205    0.008222631   -0.007863497
 -------------------------------------------------------------------
 Cartesian Forces:  Max     0.031310216 RMS     0.011475487
 -----------------------------------------------------------------------------------------------
                       Internal Coordinate Forces (Hartree/Bohr or radian)
  Cent   Atom   N1       Length/X         N2         Alpha/Y        N3         Beta/Z          J
 -----------------------------------------------------------------------------------------------
      1  C 
      2  O        1  -0.027604(     1)
      3  H        2   0.003106(     2)      1  -0.001984(    13)
      4  H        2   0.020014(     3)      1   0.006372(    14)      3   0.001009(    24)     0
      5  H        1   0.004902(     4)      2  -0.000360(    15)      3   0.000215(    25)     0
      6  H        1   0.003599(     5)      2   0.008203(    16)      3  -0.002450(    26)     0
      7  H        1  -0.004428(     6)      2   0.174741(    17)      3   0.003531(    27)     0
      8  H        1  -0.010317(     7)      2  -0.063299(    18)      3  -0.128543(    28)     0
      9  H        1  -0.018684(     8)      2  -0.075567(    19)      3   0.091848(    29)     0
     10  H        1   0.004340(     9)      2   0.008985(    20)      3  -0.015802(    30)     0
     11  C        1   0.010112(    10)      2  -0.042666(    21)      3   0.054667(    31)     0
     12  C        1  -0.007945(    11)      2  -0.010555(    22)     11   0.003588(    32)     0
     13  O       12  -0.010960(    12)      1  -0.008378(    23)      2  -0.001433(    33)     0
 -----------------------------------------------------------------------------------------------
 Internal  Forces:  Max     0.174741207 RMS     0.046925739

 GradGradGradGradGradGradGradGradGradGradGradGradGradGradGradGradGradGrad
 Berny optimization.
 Search for a saddle point.
 Step number   3 out of a maximum of   42
 All quantities printed in internal units (Hartrees-Bohrs-Radians)
 Swaping is turned off.
 Update second derivatives using D2CorN and points    1    2    3
 ITU=  0  0  0
     Eigenvalues ---   -0.20499   0.00216   0.01086   0.01309   0.02608
     Eigenvalues ---    0.03585   0.06133   0.07467   0.09418   0.12210
     Eigenvalues ---    0.14480   0.16459   0.21437   0.25217   0.29837
     Eigenvalues ---    0.30072   0.33036   0.39653   0.40314   0.40489
     Eigenvalues ---    0.45933   0.55836   0.57713   0.79490   1.22121
     Eigenvalues ---    2.49988   3.22207   3.78840   6.38528   7.54722
     Eigenvalues ---   18.76196  22.05054
 Eigenvectors required to have negative eigenvalues:
                          B2        A10       A11       A4        A7
   1                    0.37679  -0.36468   0.33420   0.32354  -0.28854
                          B6        A8        D4        B5        D5
   1                   -0.28419  -0.27260   0.26969   0.24701  -0.23459
 RFO step:  Lambda0=2.491670225D-02 Lambda=-3.29697693D-02.
 Linear search not attempted -- option 19 set.
 Maximum step size (   0.300) exceeded in Quadratic search.
    -- Step size scaled by   0.670
 Variable       Old X    -DE/DX   Delta X   Delta X   Delta X     New X
                                 (Linear)    (Quad)   (Total)
    B1        1.82475   0.00311   0.00000   0.00224   0.00224   1.82699
    B2        2.15386   0.02001   0.00000  -0.10363  -0.10363   2.05023
    B3        2.04031   0.00490   0.00000   0.00442   0.00442   2.04473
    B4        2.04429   0.00360   0.00000   0.00032   0.00032   2.04461
    B5        5.45090  -0.00443   0.00000  -0.05348  -0.05348   5.39742
    B6        5.19052  -0.01032   0.00000   0.07390   0.07390   5.26442
    B7        6.55272  -0.01868   0.00000  -0.01032  -0.01032   6.54240
    B8        3.90998   0.00434   0.00000   0.07254   0.07254   3.98253
    B9        4.80540   0.01011   0.00000  -0.00462  -0.00462   4.80079
   B10        2.80985  -0.00794   0.00000  -0.02470  -0.02470   2.78515
   B11        2.66613  -0.01096   0.00000  -0.01012  -0.01012   2.65601
    A1        1.84249  -0.00198   0.00000   0.04054   0.04054   1.88303
    A2        1.21756   0.00637   0.00000   0.00910   0.00910   1.22666
    A3        1.70372  -0.00036   0.00000   0.03510   0.03510   1.73883
    A4        1.50565   0.00820   0.00000  -0.12246  -0.12246   1.38319
    A5        1.17792   0.17474   0.00000   0.05505   0.05505   1.23297
    A6        1.78726  -0.06330   0.00000   0.05554   0.05554   1.84281
    A7        1.70045  -0.07557   0.00000   0.00364   0.00364   1.70409
    A8        2.11907   0.00898   0.00000   0.07701   0.07701   2.19608
    A9        1.57967  -0.04267   0.00000   0.04038   0.04038   1.62005
   A10        1.63920  -0.01056   0.00000   0.09911   0.09911   1.73831
   A11        1.79453  -0.00838   0.00000  -0.13529  -0.13529   1.65924
    D1       -1.78054   0.00101   0.00000   0.01057   0.01057  -1.76997
    D2        0.15036   0.00022   0.00000  -0.02484  -0.02484   0.12552
    D3       -1.88676  -0.00245   0.00000  -0.02058  -0.02058  -1.90734
    D4        2.84991   0.00353   0.00000   0.04081   0.04081   2.89072
    D5        3.16643  -0.12854   0.00000  -0.02279  -0.02279   3.14364
    D6        2.59845   0.09185   0.00000   0.00092   0.00092   2.59937
    D7        1.95099  -0.01580   0.00000   0.01265   0.01265   1.96363
    D8        2.78478   0.05467   0.00000   0.00461   0.00461   2.78939
    D9       -0.57470   0.00359   0.00000   0.00950   0.00950  -0.56521
   D10       -0.65492  -0.00143   0.00000  -0.03782  -0.03782  -0.69275
         Item               Value     Threshold  Converged?
 Maximum Force            0.174741     0.000450     NO 
 RMS     Force            0.047403     0.000300     NO 
 Maximum Displacement     0.135291     0.001800     NO 
 RMS     Displacement     0.053033     0.001200     NO 
 Predicted change in Energy=-3.663140D-03
 GradGradGradGradGradGradGradGradGradGradGradGradGradGradGradGradGradGrad

 ---------------------------------------------------------------------------------------------------
                            Z-MATRIX (ANGSTROMS AND DEGREES)
   CD    Cent   Atom    N1       Length/X        N2       Alpha/Y        N3        Beta/Z          J
 ---------------------------------------------------------------------------------------------------
      1      1  C 
      2      2  O        1   2.203291(     1)
      3      3  H        2   0.966801(     2)      1  107.890(    13)
      4      4  H        2   1.084935(     3)      1   70.282(    14)      3 -101.412(    24)      0
      5      5  H        1   1.082023(     4)      2   99.627(    15)      3    7.192(    25)      0
      6      6  H        1   1.081963(     5)      2   79.251(    16)      3 -109.283(    26)      0
      7      7  H        1   2.856191(     6)      2   70.644(    17)      3  165.626(    27)      0
      8      8  H        1   2.785811(     7)      2  105.585(    18)      3  180.117(    28)      0
      9      9  H        1   3.462087(     8)      2   97.637(    19)      3  148.933(    29)      0
     10     10  H        1   2.107463(     9)      2  125.826(    20)      3  112.508(    30)      0
     11     11  C        1   2.540466(    10)      2   92.822(    21)      3  159.820(    31)      0
     12     12  C        1   1.473836(    11)      2   99.598(    22)     11  -32.384(    32)      0
     13     13  O       12   1.405502(    12)      1   95.067(    23)      2  -39.691(    33)      0
 ---------------------------------------------------------------------------------------------------
                         Z-Matrix orientation:                         
 ---------------------------------------------------------------------
 Center     Atomic      Atomic             Coordinates (Angstroms)
 Number     Number       Type             X           Y           Z
 ---------------------------------------------------------------------
      1          6           0        0.000000    0.000000    0.000000
      2          8           0        0.000000    0.000000    2.203291
      3          1           0        0.920056    0.000000    2.500276
      4          1           0       -0.202079   -1.001129    1.837246
      5          1           0        1.058392   -0.133549   -0.180958
      6          1           0       -0.351026    1.003346    0.201796
      7          1           0       -2.610394   -0.668980    0.946644
      8          1           0       -2.683377    0.005499   -0.748465
      9          1           0       -2.939199   -1.770723   -0.460107
     10          1           0       -0.654117   -1.578569   -1.233552
     11          6           0       -2.381630   -0.875308   -0.125073
     12          6           0       -0.883377   -1.153886   -0.245732
     13          8           0       -0.357016   -1.937221    0.795789
 ---------------------------------------------------------------------
                    Distance matrix (angstroms):
                    1          2          3          4          5
     1  C    0.000000
     2  O    2.203291   0.000000
     3  H    2.664185   0.966801   0.000000
     4  H    2.102039   1.084935   1.643489   0.000000
     5  H    1.082023   2.612024   2.688120   2.532712   0.000000
     6  H    1.081963   2.266253   2.811648   2.591294   1.850807
     7  H    2.856191   2.973357   3.914765   2.589108   3.875328
     8  H    2.785811   3.989161   4.851709   3.722371   3.787114
     9  H    3.462087   4.343735   5.176212   3.655397   4.328856
    10  H    2.107463   3.838181   4.348721   3.157147   2.475626
    11  C    2.540466   3.443777   4.308103   2.935467   3.519529
    12  C    1.473836   2.847721   3.482008   2.196884   2.194482
    13  O    2.124515   2.421021   2.879064   1.408866   2.492117
                    6          7          8          9         10
     6  H    0.000000
     7  H    2.907958   0.000000
     8  H    2.708977   1.825827   0.000000
     9  H    3.851261   1.816837   1.817570   0.000000
    10  H    2.969574   3.067185   2.619633   2.420070   0.000000
    11  C    2.785594   1.115114   1.120487   1.106752   2.169702
    12  C    2.266567   2.153945   2.199299   2.157046   1.099411
    13  O    2.999966   2.590155   3.401594   2.876224   2.082097
                   11         12         13
    11  C    0.000000
    12  C    1.528701   0.000000
    13  O    2.464692   1.405502   0.000000
 Symmetry turned off by external request.
 Stoichiometry    C3H8O2
 Framework group  C1[X(C3H8O2)]
 Deg. of freedom    33
 Full point group                 C1      NOp   1
 Rotational constants (GHZ):      6.8899727      3.3806659      3.2606614
 Standard basis: 6-31++G(d,p) (6D, 7F)
 The following finite field(s) will be applied:
 An electric field of              0.0000  0.0000  0.0025
 Integral buffers will be    131072 words long.
 Raffenetti 2 integral format.
 Two-electron integral symmetry is turned off.
   143 basis functions,   224 primitive gaussians,   143 cartesian basis functions
    21 alpha electrons       21 beta electrons
       nuclear repulsion energy       190.2403215583 Hartrees.
 NAtoms=   13 NActive=   13 NUniq=   13 SFac= 1.00D+00 NAtFMM=   50 NAOKFM=F Big=F
 One-electron integrals computed using PRISM.
 PrsmSu:  requested number of processors reduced to:  10 ShMem   1 Linda.
 NBasis=   143 RedAO= T  NBF=   143
 NBsUse=   143 1.00D-06 NBFU=   143
 The nuclear repulsion energy is now       190.3566847260 hartrees.
 Initial guess read from the read-write file.
 B after Tr=     0.000000    0.000000    0.000000
         Rot=    1.000000    0.000000    0.000000    0.000000 Ang=   0.00 deg.
 Harris functional with IExCor=  402 diagonalized for initial guess.
 ExpMin= 3.60D-02 ExpMax= 5.48D+03 ExpMxC= 8.25D+02 IAcc=3 IRadAn=         0 AccDes= 0.00D+00
 HarFok:  IExCor=  402 AccDes= 0.00D+00 IRadAn=         0 IDoV= 1
 ScaDFX=  1.000000  1.000000  1.000000  1.000000
 FoFCou: FMM=F IPFlag=           0 FMFlag=      100000 FMFlg1=           0
         NFxFlg=           0 DoJE=T BraDBF=F KetDBF=T FulRan=T
         Omega=  0.000000  0.000000  1.000000  0.000000  0.000000 ICntrl=     500 IOpCl=  0
         NMat0=    1 NMatS0=    1 NMatT0=    0 NMatD0=    1 NMtDS0=    0 NMtDT0=    0
         I1Cent=           4 NGrid=           0.
 Symmetry not used in FoFCou.
 Requested convergence on RMS density matrix=1.00D-08 within 128 cycles.
 Requested convergence on MAX density matrix=1.00D-06.
 Requested convergence on             energy=1.00D-06.
 No special actions if energy rises.
 SCF Done:  E(RB3LYP) =  -269.488386596     A.U. after   14 cycles
             Convg  =    0.3399D-08             -V/T =  2.0097
 PrsmSu:  requested number of processors reduced to:  10 ShMem   1 Linda.
 PrsmSu:  requested number of processors reduced to:  23 ShMem   1 Linda.
 Calling FoFJK, ICntrl=      2127 FMM=F ISym2X=0 I1Cent= 0 IOpClX= 0 NMat=1 NMatS=1 NMatT=0.
 CoulSu:  requested number of processors reduced to:  16 ShMem   1 Linda.
 -------------------------------------------------------------------
 Center     Atomic                   Forces (Hartrees/Bohr)
 Number     Number              X              Y              Z
 -------------------------------------------------------------------
      1        6          -0.001088839    0.004791204    0.004558659
      2        8          -0.001762330   -0.003608805   -0.007076658
      3        1           0.001489141    0.000649859   -0.000162912
      4        1           0.000314584    0.000704492   -0.002168302
      5        1           0.001734129   -0.000724784   -0.000282724
      6        1           0.000006476    0.002358218    0.000433395
      7        1          -0.000664879   -0.001594196   -0.013523103
      8        1           0.002601695   -0.012277122    0.006950991
      9        1           0.001876484    0.008343079    0.004403274
     10        1           0.000862192   -0.002238735   -0.002582983
     11        6          -0.006204988    0.004869461    0.001988654
     12        6           0.002314208    0.001825720    0.007147448
     13        8          -0.001477873   -0.003098392    0.000314261
 -------------------------------------------------------------------
 Cartesian Forces:  Max     0.013523103 RMS     0.004422832
 -----------------------------------------------------------------------------------------------
                       Internal Coordinate Forces (Hartree/Bohr or radian)
  Cent   Atom   N1       Length/X         N2         Alpha/Y        N3         Beta/Z          J
 -----------------------------------------------------------------------------------------------
      1  C 
      2  O        1  -0.009408(     1)
      3  H        2   0.001367(     2)      1  -0.001119(    13)
      4  H        2   0.000023(     3)      1  -0.004706(    14)      3   0.000326(    24)     0
      5  H        1   0.001833(     4)      2  -0.000049(    15)      3   0.001012(    25)     0
      6  H        1   0.002266(     5)      2  -0.000023(    16)      3   0.001577(    26)     0
      7  H        1  -0.003501(     6)      2   0.070724(    17)      3  -0.007024(    27)     0
      8  H        1  -0.004398(     7)      2  -0.031532(    18)      3  -0.062228(    28)     0
      9  H        1  -0.006445(     8)      2  -0.023411(    19)      3   0.040061(    29)     0
     10  H        1   0.002921(     9)      2   0.004289(    20)      3  -0.005339(    30)     0
     11  C        1   0.004041(    10)      2  -0.010515(    21)      3   0.033501(    31)     0
     12  C        1  -0.000749(    11)      2  -0.014293(    22)     11   0.001321(    32)     0
     13  O       12   0.001406(    12)      1   0.008359(    23)      2   0.000024(    33)     0
 -----------------------------------------------------------------------------------------------
 Internal  Forces:  Max     0.070724453 RMS     0.020488722

 GradGradGradGradGradGradGradGradGradGradGradGradGradGradGradGradGradGrad
 Berny optimization.
 Search for a saddle point.
 Step number   4 out of a maximum of   42
 All quantities printed in internal units (Hartrees-Bohrs-Radians)
 Swaping is turned off.
 Update second derivatives using D2CorN and points    1    2    3    4
 ITU=  0  0  0  0
     Eigenvalues ---   -0.18259   0.00247   0.00991   0.01270   0.01518
     Eigenvalues ---    0.03424   0.06118   0.07575   0.09555   0.12072
     Eigenvalues ---    0.14603   0.16528   0.21295   0.25116   0.29495
     Eigenvalues ---    0.30008   0.33895   0.39720   0.40261   0.40533
     Eigenvalues ---    0.46137   0.55830   0.58315   0.79526   1.22109
     Eigenvalues ---    2.50013   3.22207   3.78841   6.38302   7.55699
     Eigenvalues ---   18.76283  22.05052
 Eigenvectors required to have negative eigenvalues:
                          B6        B5        B2        A10       A7
   1                    0.42780  -0.38413  -0.37051   0.32334   0.27264
                          A4        D4        A8        A11       D5
   1                   -0.25975  -0.24990   0.23186  -0.22857   0.17735
 RFO step:  Lambda0=3.757229855D-03 Lambda=-6.84567705D-03.
 Linear search not attempted -- option 19 set.
 Maximum step size (   0.300) exceeded in Quadratic search.
    -- Step size scaled by   0.870
 Variable       Old X    -DE/DX   Delta X   Delta X   Delta X     New X
                                 (Linear)    (Quad)   (Total)
    B1        1.82699   0.00137   0.00000   0.00113   0.00113   1.82811
    B2        2.05023   0.00002   0.00000  -0.00165  -0.00165   2.04858
    B3        2.04473   0.00183   0.00000   0.00220   0.00220   2.04693
    B4        2.04461   0.00227   0.00000   0.00363   0.00363   2.04824
    B5        5.39742  -0.00350   0.00000  -0.11893  -0.11893   5.27849
    B6        5.26442  -0.00440   0.00000   0.17219   0.17219   5.43661
    B7        6.54240  -0.00645   0.00000  -0.00496  -0.00496   6.53744
    B8        3.98253   0.00292   0.00000  -0.01180  -0.01180   3.97073
    B9        4.80079   0.00404   0.00000   0.01249   0.01249   4.81327
   B10        2.78515  -0.00075   0.00000   0.00869   0.00869   2.79384
   B11        2.65601   0.00141   0.00000   0.00437   0.00437   2.66038
    A1        1.88303  -0.00112   0.00000  -0.01146  -0.01146   1.87157
    A2        1.22666  -0.00471   0.00000  -0.00678  -0.00678   1.21988
    A3        1.73883  -0.00005   0.00000  -0.04511  -0.04511   1.69372
    A4        1.38319  -0.00002   0.00000   0.02734   0.02734   1.41052
    A5        1.23297   0.07072   0.00000   0.05607   0.05607   1.28904
    A6        1.84281  -0.03153   0.00000   0.06955   0.06955   1.91236
    A7        1.70409  -0.02341   0.00000   0.00825   0.00825   1.71234
    A8        2.19608   0.00429   0.00000  -0.01029  -0.01029   2.18579
    A9        1.62005  -0.01052   0.00000   0.04990   0.04990   1.66995
   A10        1.73831  -0.01429   0.00000   0.00908   0.00908   1.74738
   A11        1.65924   0.00836   0.00000   0.03547   0.03547   1.69470
    D1       -1.76997   0.00033   0.00000  -0.00973  -0.00973  -1.77970
    D2        0.12552   0.00101   0.00000  -0.03622  -0.03622   0.08930
    D3       -1.90734   0.00158   0.00000  -0.03940  -0.03940  -1.94675
    D4        2.89072  -0.00702   0.00000  -0.00427  -0.00427   2.88645
    D5        3.14364  -0.06223   0.00000  -0.07890  -0.07890   3.06475
    D6        2.59937   0.04006   0.00000  -0.05444  -0.05444   2.54493
    D7        1.96363  -0.00534   0.00000  -0.10040  -0.10040   1.86323
    D8        2.78939   0.03350   0.00000  -0.04312  -0.04312   2.74627
    D9       -0.56521   0.00132   0.00000  -0.00544  -0.00544  -0.57065
   D10       -0.69275   0.00002   0.00000   0.08179   0.08179  -0.61096
         Item               Value     Threshold  Converged?
 Maximum Force            0.070724     0.000450     NO 
 RMS     Force            0.020740     0.000300     NO 
 Maximum Displacement     0.172193     0.001800     NO 
 RMS     Displacement     0.053033     0.001200     NO 
 Predicted change in Energy=-1.745275D-03
 GradGradGradGradGradGradGradGradGradGradGradGradGradGradGradGradGradGrad

 ---------------------------------------------------------------------------------------------------
                            Z-MATRIX (ANGSTROMS AND DEGREES)
   CD    Cent   Atom    N1       Length/X        N2       Alpha/Y        N3        Beta/Z          J
 ---------------------------------------------------------------------------------------------------
      1      1  C 
      2      2  O        1   2.203291(     1)
      3      3  H        2   0.967396(     2)      1  107.233(    13)
      4      4  H        2   1.084063(     3)      1   69.894(    14)      3 -101.969(    24)      0
      5      5  H        1   1.083187(     4)      2   97.043(    15)      3    5.116(    25)      0
      6      6  H        1   1.083884(     5)      2   80.817(    16)      3 -111.540(    26)      0
      7      7  H        1   2.793257(     6)      2   73.857(    17)      3  165.381(    27)      0
      8      8  H        1   2.876932(     7)      2  109.570(    18)      3  175.597(    28)      0
      9      9  H        1   3.459463(     8)      2   98.110(    19)      3  145.814(    29)      0
     10     10  H        1   2.101217(     9)      2  125.236(    20)      3  106.755(    30)      0
     11     11  C        1   2.547073(    10)      2   95.681(    21)      3  157.350(    31)      0
     12     12  C        1   1.478436(    11)      2  100.118(    22)     11  -32.696(    32)      0
     13     13  O       12   1.407813(    12)      1   97.099(    23)      2  -35.005(    33)      0
 ---------------------------------------------------------------------------------------------------
                         Z-Matrix orientation:                         
 ---------------------------------------------------------------------
 Center     Atomic      Atomic             Coordinates (Angstroms)
[...]
     10  H        1  -0.000007(     9)      2  -0.000012(    20)      3   0.000014(    30)     0
     11  C        1   0.000021(    10)      2  -0.000022(    21)      3   0.000068(    31)     0
     12  C        1   0.000004(    11)      2   0.000029(    22)     11  -0.000024(    32)     0
     13  O       12  -0.000007(    12)      1  -0.000004(    23)      2   0.000001(    33)     0
 -----------------------------------------------------------------------------------------------
 Internal  Forces:  Max     0.002904016 RMS     0.000506949

 GradGradGradGradGradGradGradGradGradGradGradGradGradGradGradGradGradGrad
 Berny optimization.
 Search for a saddle point.
 Step number   1 out of a maximum of    2
 All quantities printed in internal units (Hartrees-Bohrs-Radians)
 Swaping is turned off.
 Second derivative matrix not updated -- analytic derivatives used.
 ITU=  0
     Eigenvalues ---   -0.07454   0.00295   0.01130   0.01376   0.01473
     Eigenvalues ---    0.03376   0.06321   0.08072   0.09305   0.11457
     Eigenvalues ---    0.14265   0.16323   0.18806   0.27090   0.28456
     Eigenvalues ---    0.29718   0.33927   0.36978   0.37288   0.41285
     Eigenvalues ---    0.47412   0.52966   0.62182   0.82719   1.16225
     Eigenvalues ---    2.61362   3.35383   3.88279   5.56194   6.74716
     Eigenvalues ---   16.60440  19.39264
 Eigenvectors required to have negative eigenvalues:
                          A11       B2        A10       A4        A8
   1                    0.49778   0.40573  -0.39453   0.39031  -0.30293
                          B8        A7        A9        A1        D10
   1                   -0.17730  -0.16755  -0.14144  -0.12789   0.12053
 Angle between quadratic step and forces=  82.96 degrees.
 Linear search not attempted -- option 19 set.
 Variable       Old X    -DE/DX   Delta X   Delta X   Delta X     New X
                                 (Linear)    (Quad)   (Total)
    B1        1.82878   0.00000   0.00000   0.00000   0.00000   1.82878
    B2        1.98507  -0.00001   0.00000   0.00005   0.00005   1.98513
    B3        2.04899   0.00000   0.00000   0.00001   0.00001   2.04900
    B4        2.04778   0.00000   0.00000   0.00001   0.00001   2.04779
    B5        5.24279  -0.00002   0.00000  -0.00071  -0.00071   5.24208
    B6        5.49411  -0.00002   0.00000   0.00038   0.00038   5.49449
    B7        6.53597  -0.00001   0.00000  -0.00011  -0.00011   6.53586
    B8        4.02286  -0.00001   0.00000  -0.00004  -0.00004   4.02283
    B9        4.81481   0.00002   0.00000  -0.00006  -0.00006   4.81476
   B10        2.78850   0.00000   0.00000   0.00004   0.00004   2.78854
   B11        2.65388  -0.00001   0.00000  -0.00003  -0.00003   2.65384
    A1        1.88838   0.00001   0.00000   0.00016   0.00016   1.88854
    A2        1.22653   0.00000   0.00000   0.00002   0.00002   1.22655
    A3        1.71809   0.00000   0.00000  -0.00004  -0.00004   1.71806
    A4        1.33679  -0.00001   0.00000   0.00005   0.00005   1.33684
    A5        1.35757   0.00012   0.00000   0.00017   0.00017   1.35775
    A6        1.99276  -0.00008   0.00000   0.00020   0.00020   1.99296
    A7        1.69763  -0.00001   0.00000  -0.00023  -0.00023   1.69739
    A8        2.22040  -0.00001   0.00000  -0.00009  -0.00009   2.22032
    A9        1.70602  -0.00002   0.00000   0.00003   0.00003   1.70605
   A10        1.79505   0.00003   0.00000  -0.00008  -0.00008   1.79498
   A11        1.62885   0.00000   0.00000   0.00010   0.00010   1.62895
    D1       -1.77468   0.00000   0.00000  -0.00010  -0.00010  -1.77479
    D2        0.07230   0.00000   0.00000   0.00019   0.00019   0.07249
    D3       -1.96094   0.00000   0.00000   0.00019   0.00019  -1.96074
    D4        2.95921  -0.00004   0.00000   0.00052   0.00052   2.95973
    D5        3.01559  -0.00010   0.00000  -0.00009  -0.00009   3.01550
    D6        2.54421   0.00007   0.00000   0.00021   0.00021   2.54442
    D7        1.87018   0.00001   0.00000   0.00012   0.00012   1.87030
    D8        2.75008   0.00007   0.00000   0.00020   0.00020   2.75028
    D9       -0.56997  -0.00002   0.00000  -0.00005  -0.00005  -0.57002
   D10       -0.62619   0.00000   0.00000   0.00010   0.00010  -0.62609
         Item               Value     Threshold  Converged?
 Maximum Force            0.000123     0.000450     YES
 RMS     Force            0.000039     0.000300     YES
 Maximum Displacement     0.000712     0.001800     YES
 RMS     Displacement     0.000204     0.001200     YES
 Predicted change in Energy=-1.540840D-08
 Optimization completed.
    -- Stationary point found.
                       ----------------------------
                       !   Optimized Parameters   !
                       ! (Angstroms and Degrees)  !
 ----------------------                            ----------------------
 !      Name          Value   Derivative information (Atomic Units)     !
 ------------------------------------------------------------------------
 !       B1          0.9677   -DE/DX =    0.0                           !
 !       B2          1.0505   -DE/DX =    0.0                           !
 !       B3          1.0843   -DE/DX =    0.0                           !
 !       B4          1.0836   -DE/DX =    0.0                           !
 !       B5          2.7744   -DE/DX =    0.0                           !
 !       B6          2.9074   -DE/DX =    0.0                           !
 !       B7          3.4587   -DE/DX =    0.0                           !
 !       B8          2.1288   -DE/DX =    0.0                           !
 !       B9          2.5479   -DE/DX =    0.0                           !
 !       B10         1.4756   -DE/DX =    0.0                           !
 !       B11         1.4044   -DE/DX =    0.0                           !
 !       A1        108.1963   -DE/DX =    0.0                           !
 !       A2         70.2752   -DE/DX =    0.0                           !
 !       A3         98.4395   -DE/DX =    0.0                           !
 !       A4         76.5925   -DE/DX =    0.0                           !
 !       A5         77.7833   -DE/DX =    0.0001                        !
 !       A6        114.1768   -DE/DX =   -0.0001                        !
 !       A7         97.2669   -DE/DX =    0.0                           !
 !       A8        127.2198   -DE/DX =    0.0                           !
 !       A9         97.7477   -DE/DX =    0.0                           !
 !       A10       102.8489   -DE/DX =    0.0                           !
 !       A11        93.326    -DE/DX =    0.0                           !
 !       D1       -101.6818   -DE/DX =    0.0                           !
 !       D2          4.1425   -DE/DX =    0.0                           !
 !       D3       -112.3534   -DE/DX =    0.0                           !
 !       D4        169.5505   -DE/DX =    0.0                           !
 !       D5        172.7807   -DE/DX =   -0.0001                        !
 !       D6        145.7726   -DE/DX =    0.0001                        !
 !       D7        107.1533   -DE/DX =    0.0                           !
 !       D8        157.5679   -DE/DX =    0.0001                        !
 !       D9        -32.657    -DE/DX =    0.0                           !
 !       D10       -35.8781   -DE/DX =    0.0                           !
 ------------------------------------------------------------------------
 GradGradGradGradGradGradGradGradGradGradGradGradGradGradGradGradGradGrad

 1\1\GINC-C21N10\Freq\RB3LYP\6-31++G(d,p)\C3H8O2\ROOT\05-Mar-2018\1\\#N
  Geom=AllCheck Guess=TCheck SCRF=Check GenChk RB3LYP/6-31++G(d,p) Freq
 \\OH-BACK-TERM\\0,1\C\O,1,2.20329058\H,2,B1,1,A1\H,2,B2,1,A2,3,D1,0\H,
 1,B3,2,A3,3,D2,0\H,1,B4,2,A4,3,D3,0\H,1,B5,2,A5,3,D4,0\H,1,B6,2,A6,3,D
 5,0\H,1,B7,2,A7,3,D6,0\H,1,B8,2,A8,3,D7,0\C,1,B9,2,A9,3,D8,0\C,1,B10,2
 ,A10,11,D9,0\O,12,B11,1,A11,2,D10,0\\B1=0.96774888\B2=1.05045613\B3=1.
 08427906\B4=1.0836406\B5=2.77436634\B6=2.90735516\B7=3.45868687\B8=2.1
 2880679\B9=2.54788976\B10=1.47561071\B11=1.40437231\A1=108.19630221\A2
 =70.27518719\A3=98.43951049\A4=76.5925318\A5=77.78325896\A6=114.176775
 21\A7=97.26694405\A8=127.21982132\A9=97.74771263\A10=102.8489362\A11=9
 3.32595696\D1=-101.68178647\D2=4.14248066\D3=-112.3533661\D4=169.55048
 911\D5=172.78066207\D6=145.77263049\D7=107.1532984\D8=157.56790895\D9=
 -32.65704167\D10=-35.87813031\\Version=EM64L-G09RevB.01\HF=-269.490056
 1\RMSD=1.369e-09\RMSF=6.683e-04\ZeroPoint=0.1070782\Thermal=0.1131962\
 Dipole=0.4549993,0.9605644,-0.967544\DipoleDeriv=0.1369595,-0.0452343,
 0.0754958,0.0929941,0.6278753,0.2010536,0.1705246,0.2473365,0.7440517,
 -0.3540231,-0.0918166,-0.1371847,-0.1670541,-0.6187952,-0.3439966,-0.2
 206754,-0.4489709,-1.192524,0.1601394,0.0335882,0.0301615,0.059568,0.2
 867695,0.0227851,0.0057819,-0.0121681,0.2816783,0.2525127,0.0980291,0.
 1058881,0.1360317,0.3633456,0.4140868,0.091233,0.1263654,0.6023975,-0.
 0127916,-0.0108,-0.0041931,0.0044581,0.0584375,0.0303374,-0.0163176,-0
 .0009096,0.0062737,0.0583894,0.0357688,0.0223233,0.0228008,0.0485254,0
 .0340328,-0.0238533,-0.0954323,0.0003203,0.0267533,0.0066084,0.003892,
 0.042327,0.021563,-0.0657793,0.0742473,-0.0750988,-0.0736154,-0.012363
 7,-0.0188296,-0.0233031,0.0620509,0.0081792,0.1080926,-0.0633288,0.092
 7371,-0.062518,0.0112198,-0.022737,-0.0230007,-0.0950611,-0.0759374,-0
 .0229244,-0.0008028,-0.0098763,0.0800705,-0.0294166,0.0353171,0.029214
 7,0.0181846,0.0679502,-0.0766657,0.0174727,-0.0857575,-0.1693032,-0.11
 57024,0.0428805,-0.0143295,0.0322874,0.1274516,-0.0255307,-0.0430709,-
 0.0435348,0.1000776,0.5624081,0.0784894,0.1873865,-0.169827,0.0844326,
 -0.1983549,0.1915125,0.241674,0.5700843,-0.6840847,-0.141264,-0.252350
 8,-0.0387601,-0.9997973,-0.0771368,-0.1827232,0.0636354,-0.8869932\Pol
 ar=51.8697511,5.6582414,56.0964535,6.2878414,3.2483547,60.9710987\PG=C
 01 [X(C3H8O2)]\NImag=1\\0.62710895,-0.03716161,0.54058992,-0.05223621,
 0.10875196,0.16609935,-0.01265521,0.00395179,0.00318675,0.52127201,-0.
 00059968,-0.01971460,-0.00229727,0.02867176,0.28384709,0.00629023,0.02
 337327,0.01769047,0.17257475,0.09982528,0.11943752,0.00086572,-0.00216
 425,-0.00518487,-0.46953215,-0.01663072,-0.15129706,0.47549629,0.00137
 074,-0.00193813,-0.00062077,0.02149731,-0.03456854,0.00361650,0.008755
 69,0.03124910,-0.00565058,0.00360942,0.00259058,-0.14191445,-0.0076771
 1,-0.05929866,0.15498139,0.00661955,0.06209606,0.00486716,0.00474395,0
 .00916429,-0.05145610,0.00694962,-0.01818017,-0.00871311,-0.03460905,-
 0.01053449,0.07374774,0.00305950,0.02221683,0.03228867,-0.03517603,-0.
 18746141,-0.08186573,0.00820688,0.00919706,0.00138171,0.01738707,0.167
 98168,0.00375026,0.02306646,-0.00149777,-0.01484517,-0.02161014,-0.047
 62284,-0.00010504,-0.00685135,-0.00343458,0.00966657,-0.00587664,0.041
 53799,-0.34842799,0.02196117,0.05011211,0.00120538,-0.00009539,-0.0011
 3504,0.00043461,-0.00008533,0.00049077,-0.00035562,0.00038435,0.000362
 35,0.36100188,0.02763523,-0.05677955,-0.00920881,-0.00273246,-0.000826
 17,0.00256855,-0.00007203,0.00071266,-0.00075371,0.00005065,0.00075885
 ,0.00060823,-0.02360861,0.05056292,0.04461646,-0.01338185,-0.04114974,
 0.00421154,0.00021097,-0.00530462,0.00043595,-0.00042406,-0.00036807,0
 .00038570,-0.00018816,-0.00040850,-0.04760518,0.01026312,0.03653947,-0
 .10482424,0.09570980,0.02865137,0.00047327,-0.00103237,0.00083058,0.00
 009101,0.00058072,0.00011368,0.00020759,0.00041968,0.00054099,-0.00402
 271,0.02401126,0.00597311,0.09488586,0.10025448,-0.30190609,-0.0680518
 1,0.00061742,-0.00121569,0.00658148,-0.00082819,0.00012528,0.00064118,
 0.00103898,0.00347306,0.00228938,-0.00286846,0.00456926,-0.00311708,-0
 .10568565,0.30258989,0.02964425,-0.06763706,-0.04555087,-0.00534550,0.
 01061183,-0.02288644,0.00129868,0.00141647,-0.00283302,-0.00163414,-0.
 00735357,-0.00538562,-0.00101712,-0.00535499,0.00569515,-0.03016053,0.
 07568368,0.05053701,0.00129704,0.00159205,0.00153965,0.00028908,-0.000
 26598,-0.00047282,0.00011253,-0.00014291,0.00005883,-0.00053164,0.0007
 1305,0.00017864,0.00027558,-0.00011493,-0.00008746,-0.00016470,-0.0009
 0252,-0.00005520,0.07704079,-0.00065538,0.00111787,0.00042725,-0.00011
 842,0.00005600,0.00016919,-0.00007929,-0.00003336,-0.00003713,0.000486
 16,-0.00004811,-0.00021902,0.00013753,-0.00009201,0.00018599,0.0001372
 5,0.00008610,-0.00018346,-0.03672029,0.10052247,-0.00022188,-0.0003494
 4,-0.00009911,-0.00020558,0.00039638,0.00016624,-0.00010037,-0.0000404
 0,-0.00000987,-0.00002648,-0.00053315,-0.00030485,0.00000332,0.0002010
 9,0.00018877,0.00062224,0.00035225,-0.00007959,-0.07327405,0.10765249,
 0.25862217,0.00141065,0.00081151,0.00070986,0.00028822,-0.00016256,-0.
 00125086,0.00007431,0.00004690,0.00008211,-0.00025557,-0.00006349,0.00
 026469,0.00019112,0.00017635,-0.00002005,-0.00013685,-0.00026023,-0.00
 033323,0.00211773,-0.00692740,0.00713641,0.06922454,0.00055618,-0.0003
 8679,-0.00034022,-0.00009829,0.00020012,0.00061241,-0.00005766,-0.0000
 0520,-0.00003815,0.00024259,-0.00014993,-0.00013241,0.00008897,0.00006
 866,0.00002188,0.00000908,-0.00000768,0.00002216,-0.00515581,0.0090212
 1,-0.01139860,-0.04469422,0.14089177,-0.00038295,0.00098803,-0.0001661
 9,-0.00011599,-0.00019056,-0.00013883,-0.00003087,0.00002616,0.0000290
 9,0.00045984,0.00008225,0.00020645,0.00000009,-0.00009129,-0.00017332,
 -0.00020712,-0.00023403,-0.00025729,-0.00764686,0.01614492,-0.01869237
 ,0.05883634,-0.12820794,0.21874174,-0.00673589,0.00107194,0.00118600,0
 .00007873,0.00008488,0.00042952,0.00002021,0.00000203,0.00005981,-0.00
 008243,0.00012003,0.00009635,-0.00109274,-0.00117510,-0.00131847,0.000
 05994,-0.00004621,0.00020850,0.00454603,0.00942109,0.00013457,0.004360
 32,0.00884709,0.00169110,0.11102881,0.00149934,0.00031587,0.00089352,-
 0.00006895,0.00001786,-0.00015385,-0.00000476,0.00002973,0.00001685,0.
 00004173,-0.00005845,0.00006878,0.00032594,0.00047528,-0.00035413,0.00
 027435,0.00019996,0.00020398,-0.00546272,-0.01108138,-0.00008823,-0.00
 764842,-0.01485301,-0.00256799,0.11871988,0.27923949,-0.00016173,-0.00
 036825,0.00021657,-0.00007802,0.00011938,0.00023934,-0.00007636,0.0000
 1950,0.00004997,0.00009046,-0.00027842,-0.00003056,-0.00009024,0.00008
 719,-0.00007487,0.00007440,0.00009383,0.00009271,-0.01355145,-0.024546
 92,-0.00157625,0.01272598,0.02216923,0.00268590,0.01074379,0.02342827,
 0.04808884,0.00551387,-0.01107786,-0.01213701,-0.00037729,-0.00226225,
 0.00091745,0.00011596,-0.00001786,0.00011578,0.00031386,0.00333894,0.0
 0179524,0.00066187,0.00024045,0.00012243,-0.00121861,-0.00262659,0.000
 45649,-0.00661389,0.00076124,-0.00006791,0.00141437,0.00014451,-0.0005
 6010,0.00122133,-0.00054974,0.00002616,0.07913133,0.00868902,-0.019060
 42,-0.02343146,0.00029476,0.00113885,0.00210508,0.00000508,0.00008773,
 0.00012760,-0.00018798,-0.00169750,0.00053231,-0.00016452,0.00106528,0
 .00104499,-0.00284233,-0.00347234,0.00024588,0.00047978,0.00103892,0.0
 0042262,0.00001009,-0.00008469,-0.00007845,0.00014877,0.00056124,0.000
 47537,-0.03318366,0.09873524,0.00002693,-0.00372100,-0.00448369,-0.000
 44178,-0.00329043,-0.00152224,-0.00001879,-0.00000714,0.00008972,0.001
 31630,0.00531293,0.00209836,-0.00013367,-0.00051854,0.00110120,-0.0009
 6302,0.00109451,-0.00193382,-0.00033708,-0.00002296,0.00122591,0.00072
 473,-0.00042719,0.00042972,0.00009980,0.00022678,0.00002100,-0.0630018
 3,0.09343294,0.24312875,-0.02240614,-0.00089279,-0.00150252,-0.0005865
 0,0.00013891,0.00017375,-0.00023649,-0.00003137,0.00000199,0.00045375,
 -0.00043971,-0.00062904,0.00015438,-0.00120828,0.00118782,0.00187271,0
 .00183530,-0.00088724,-0.07000226,0.03314213,0.06654336,-0.06641059,0.
 04033044,-0.05256402,-0.10140183,-0.10954838,-0.00993880,-0.01270281,0
 .00146309,0.00035333,0.46894544,-0.03289713,0.00227667,0.00158801,0.00
 021668,0.00050609,0.00105855,0.00005848,-0.00007224,0.00012757,-0.0005
 6057,-0.00001855,-0.00020039,-0.00408923,-0.00371257,-0.00344328,0.000
 35152,0.00108243,0.00053119,0.03301498,-0.09750660,-0.09789822,0.03965
 521,-0.13293473,0.11599902,-0.10750090,-0.26056871,-0.02181610,0.01490
 243,0.00021854,-0.00152311,0.01722591,0.57361970,-0.00432685,-0.000773
 95,0.00161022,0.00074461,-0.00040566,-0.00207737,0.00027445,0.00022435
 ,-0.00003509,-0.00148294,0.00034547,0.00042364,-0.00047255,-0.00038015
 ,0.00083924,-0.00066098,0.00118304,-0.00051554,0.06410709,-0.09747640,
 -0.24077442,-0.05183517,0.11503866,-0.20394912,-0.01069847,-0.02177829
 ,-0.04890080,0.02777694,-0.00304956,0.00033580,-0.00307059,0.00262576,
 0.57634968,-0.14596049,-0.09410885,-0.02483961,0.00180857,0.00080255,0
 .00710867,-0.00069703,0.00019042,0.00060443,-0.00081000,-0.00085702,-0
 .00153315,-0.01340836,-0.02118211,-0.01661616,0.01161349,0.00810683,0.
 01311645,-0.01191946,0.00116993,-0.00089725,-0.00386014,-0.00223700,0.
 00223434,-0.01581913,0.00329516,0.00006339,-0.07288565,0.02707701,0.06
 882851,-0.18798847,0.01417169,0.01336772,0.52093261,-0.07049176,-0.148
 53381,-0.06333441,-0.00379381,-0.01557122,-0.00987786,0.00090380,0.000
 20484,-0.00052517,-0.00104646,0.01500033,0.00693788,0.00557641,0.00284
 615,0.00715413,-0.01042877,-0.00829392,0.00270066,0.01439261,-0.002179
 43,0.00147808,0.01841199,-0.00325504,-0.00196271,-0.03126722,0.0046689
 5,0.00078243,0.02648808,-0.09344734,-0.09165752,0.00976089,-0.08019244
 ,-0.00413010,0.01829489,0.42964764,-0.02517109,-0.10328859,-0.05678894
 ,-0.00007856,-0.00836165,0.02082923,-0.00022401,0.00000150,0.00214914,
 -0.00167353,0.02104996,0.00001013,0.00082874,0.00542954,0.00178301,-0.
 00707327,-0.01626498,0.01351314,0.03080077,-0.00245336,-0.00102281,-0.
 02677449,0.00226298,0.00012297,-0.00303045,0.00087907,-0.00091796,0.05
 971089,-0.09988275,-0.20073423,0.01299133,-0.00365466,-0.07696946,-0.0
 1632010,0.09279420,0.47635066,-0.00005342,0.01556316,0.00135019,0.0091
 9198,-0.01559879,-0.01598900,0.00196813,0.00244271,0.00159073,-0.01738
 565,0.00290674,0.00045731,0.00338260,-0.00202043,0.00871430,0.00116324
 ,0.00136484,-0.00529141,0.00355317,-0.00075457,0.00035362,-0.00841811,
 0.00202413,-0.00171378,0.00381665,-0.00087343,0.00017243,0.00542564,-0
 .00178912,-0.00645343,-0.00969119,0.02545092,-0.03372325,-0.08100593,0
 .02319937,-0.02398624,0.08805288,-0.00125894,-0.01819778,0.02333532,-0
 .01326175,-0.02640837,-0.04801287,0.00190696,-0.00498894,-0.00349262,0
 .00546332,-0.02919384,0.00138690,0.00243716,0.00035122,0.00202749,-0.0
 0150455,0.00276973,-0.01088677,-0.00142730,-0.00090169,-0.00019486,0.0
 0064427,0.00149531,0.00009258,0.00157372,0.00105316,-0.00016549,0.0038
 4231,0.01491649,0.00110072,0.00822386,-0.00269759,0.00857681,0.0452764
 9,-0.10089471,0.11148874,-0.05191554,0.16269700,0.00382317,0.02973102,
 -0.03847088,-0.01769259,-0.06733103,-0.01951180,0.00004689,-0.00398032
 ,-0.00102528,0.01244858,0.03563468,0.01440816,-0.00134358,-0.00285023,
 0.00133229,0.00225856,-0.00025146,0.00960417,-0.00126004,0.00035941,0.
 00235620,-0.00026632,0.00041720,0.00116124,0.00039796,-0.00077476,0.00
 010612,-0.01515453,0.02805542,-0.03975650,-0.01265937,0.00660565,-0.00
 633678,-0.04511725,0.05964039,-0.17832488,0.07451852,-0.08525597,0.254
 45794\\0.00025026,0.00053722,0.00289976,-0.00024427,-0.00044735,-0.002
 89640,0.00000054,-0.00008543,-0.00000399,-0.00000284,-0.00000754,-0.00
 000362,-0.00000120,0.00000097,0.00000160,-0.00000117,-0.00000032,-0.00
 000492,-0.00001226,0.00000611,0.00002638,-0.00001121,0.00001963,-0.000
 01978,-0.00000280,-0.00001496,-0.00000283,0.00000299,-0.00000494,-0.00
 000668,0.00002765,-0.00000961,-0.00000160,-0.00000752,0.00001122,0.000
 00705,0.00000183,-0.00000501,0.00000503\\\@


 You don't have to suffer to be a poet.
 Adolescence is enough suffering for anyone.
                             -- John Ciardi
 Job cpu time:  0 days  0 hours  8 minutes  1.8 seconds.
 File lengths (MBytes):  RWF=   1248 Int=      0 D2E=      0 Chk=     32 Scr=     32
 Normal termination of Gaussian 09 at Mon Mar  5 15:18:54 2018.
