 Entering Gaussian System, Link 0=g09
 Input=H3O-term-field-step.gjf
 Output=H3O-term-field-step.log
 Initial command:
 /share/home/zxchen/g09/l1.exe /scratch/zxchen/Gau-28625.inp -scrdir=/scratch/zxchen/
 Entering Link 1 = /share/home/zxchen/g09/l1.exe PID=     28626.
  
 Copyright (c) 1988,1990,1992,1993,1995,1998,2003,2009,2010,
            Gaussian, Inc.  All Rights Reserved.
  
 This is part of the Gaussian(R) 09 program.  It is based on
 the Gaussian(R) 03 system (copyright 2003, Gaussian, Inc.),
 the Gaussian(R) 98 system (copyright 1998, Gaussian, Inc.),
 the Gaussian(R) 94 system (copyright 1995, Gaussian, Inc.),
 the Gaussian 92(TM) system (copyright 1992, Gaussian, Inc.),
 the Gaussian 90(TM) system (copyright 1990, Gaussian, Inc.),
 the Gaussian 88(TM) system (copyright 1988, Gaussian, Inc.),
 the Gaussian 86(TM) system (copyright 1986, Carnegie Mellon
 University), and the Gaussian 82(TM) system (copyright 1983,
 Carnegie Mellon University). Gaussian is a federally registered
 trademark of Gaussian, Inc.
  
 This software contains proprietary and confidential information,
 including trade secrets, belonging to Gaussian, Inc.
  
 This software is provided under written license and may be
 used, copied, transmitted, or stored only in accord with that
 written license.
  
 The following legend is applicable only to US Government
 contracts under FAR:
  
                    RESTRICTED RIGHTS LEGEND
  
 Use, reproduction and disclosure by the US Government is
 subject to restrictions as set forth in subparagraphs (a)
 and (c) of the Commercial Computer Software - Restricted
 Rights clause in FAR 52.227-19.
  
 Gaussian, Inc.
 340 Quinnipiac St., Bldg. 40, Wallingford CT 06492
  
  
 ---------------------------------------------------------------
 Warning -- This program may not be used in any manner that
 competes with the business of Gaussian, Inc. or will provide
 assistance to any competitor of Gaussian, Inc.  The licensee
 of this program is prohibited from giving any competitor of
 Gaussian, Inc. access to this program.  By using this program,
 the user acknowledges that Gaussian, Inc. is engaged in the
 business of creating and licensing software in the field of
 computational chemistry and represents and warrants to the
 licensee that it is not a competitor of Gaussian, Inc. and that
 it will not use this program in any manner prohibited above.
 ---------------------------------------------------------------
  

 Cite this work as:
 Gaussian 09, Revision B.01,
 M. J. Frisch, G. W. Trucks, H. B. Schlegel, G. E. Scuseria, 
 M. A. Robb, J. R. Cheeseman, G. Scalmani, V. Barone, B. Mennucci, 
 G. A. Petersson, H. Nakatsuji, M. Caricato, X. Li, H. P. Hratchian, 
 A. F. Izmaylov, J. Bloino, G. Zheng, J. L. Sonnenberg, M. Hada, 
 M. Ehara, K. Toyota, R. Fukuda, J. Hasegawa, M. Ishida, T. Nakajima, 
 Y. Honda, O. Kitao, H. Nakai, T. Vreven, J. A. Montgomery, Jr., 
 J. E. Peralta, F. Ogliaro, M. Bearpark, J. J. Heyd, E. Brothers, 
 K. N. Kudin, V. N. Staroverov, T. Keith, R. Kobayashi, J. Normand, 
 K. Raghavachari, A. Rendell, J. C. Burant, S. S. Iyengar, J. Tomasi, 
 M. Cossi, N. Rega, J. M. Millam, M. Klene, J. E. Knox, J. B. Cross, 
 V. Bakken, C. Adamo, J. Jaramillo, R. Gomperts, R. E. Stratmann, 
 O. Yazyev, A. J. Austin, R. Cammi, C. Pomelli, J. W. Ochterski, 
 R. L. Martin, K. Morokuma, V. G. Zakrzewski, G. A. Voth, 
 P. Salvador, J. J. Dannenberg, S. Dapprich, A. D. Daniels, 
 O. Farkas, J. B. Foresman, J. V. Ortiz, J. Cioslowski, 
 and D. J. Fox, Gaussian, Inc., Wallingford CT, 2010.
 
 ******************************************
 Gaussian 09:  EM64L-G09RevB.01 12-Aug-2010
                27-Apr-2018 
 ******************************************
 %chk=H3O-term-field-step.chk
 %nprocshared=24
 Will use up to   24 processors via shared memory.
 ----------------------------------------------------------------------
 # opt=(notrust,calcfc,ts,maxstep=2,noeigen,z-matrix,maxcycle=300) b3ly
 p/6-31++g(d,p) field=z+25 freq
 ----------------------------------------------------------------------
 1/5=1,6=300,8=2,9=1,10=4,11=1,14=-1,18=40,26=3,38=1/1,3;
 2/12=2,17=6,18=5,29=3,40=1/2;
 3/5=1,6=6,7=1111,11=2,14=3,15=25,16=1,25=1,30=1,71=2,74=-5/1,2,3;
 4//1;
 5/5=2,38=5/2;
 8/6=4,10=90,11=11/1;
 11/6=1,8=1,9=11,15=111,16=1/1,2,10;
 10/6=1,7=6,13=1/2;
 6/7=2,8=2,9=2,10=2,28=1/1;
 7/10=1,18=20,25=1/1,2,3,16;
 1/5=1,6=300,8=2,9=1,10=4,11=1,14=-1,18=40/3(2);
 2/29=3/2;
 99//99;
 2/29=3/2;
 3/5=1,6=6,7=1111,11=2,14=3,15=25,16=1,25=1,30=1,71=1,74=-5/1,2,3;
 4/5=5,16=3/1;
 5/5=2,38=5/2;
 7//1,2,3,16;
 1/5=1,6=300,8=2,9=1,11=1,14=-1,18=40/3(-5);
 2/29=3/2;
 6/7=2,8=2,9=2,10=2,19=2,28=1/1;
 99/9=1/99;
 -------------------------------
 change step tp 2 and use calcfc
 -------------------------------
 Symbolic Z-matrix:
 Charge =  1 Multiplicity = 1
 C
 O                    1    B1
 H                    1    B2       2    A1
 H                    1    B3       2    A2       3    D1       0
 H                    1    B4       2    A3       3    D2       0
 H                    1    B5       2    A4       3    D3       0
 H                    1    B6       2    A5       3    D4       0
 H                    2    B7       1    A6       7    D5       0
 H                    2    B8       1    A7       7    D6       0
 H                    1    B9       2    A8       9    D7       0
 C                    1    B10      2    A9       9    D8       0
 C                    1    B11      2    A10      11   D9       0
 O                    12   B12      1    A11      2    D10      0
 H                    11   B13      1    A12      12   D11      0
       Variables:
  B1                    2.09123                  
  B2                    3.00812                  
  B3                    3.4639                   
  B4                    2.16822                  
  B5                    2.40662                  
  B6                    1.08346                  
  B7                    0.9705                   
  B8                    0.96967                  
  B9                    1.08317                  
  B10                   2.58235                  
  B11                   1.47061                  
  B12                   1.48272                  
  B13                   1.0934                   
  A1                   71.49762                  
  A2                  101.88612                  
  A3                   95.67347                  
  A4                  152.31211                  
  A5                   90.84896                  
  A6                  119.29747                  
  A7                  119.87125                  
  A8                   91.57762                  
  A9                   92.1461                   
  A10                 104.27997                  
  A11                  78.45686                  
  A12                  88.15007                  
  D1                    4.88463                  
  D2                   51.1991                   
  D3                   71.27341                  
  D4                  146.45681                  
  D5                   12.83475                  
  D6                 -121.95454                  
  D7                   -3.72461                  
  D8                   88.7353                   
  D9                   27.86746                  
  D10                -177.47119                  
  D11                 143.01263                  
 

 GradGradGradGradGradGradGradGradGradGradGradGradGradGradGradGradGradGrad
 Berny optimization.
 Initialization pass.
                       ----------------------------
                       !    Initial Parameters    !
                       ! (Angstroms and Degrees)  !
 ----------------------                            ----------------------
 !      Name          Value   Derivative information (Atomic Units)     !
 ------------------------------------------------------------------------
 !       B1          2.0912   calculate D2E/DX2 analytically            !
 !       B2          3.0081   calculate D2E/DX2 analytically            !
 !       B3          3.4639   calculate D2E/DX2 analytically            !
 !       B4          2.1682   calculate D2E/DX2 analytically            !
 !       B5          2.4066   calculate D2E/DX2 analytically            !
 !       B6          1.0835   calculate D2E/DX2 analytically            !
 !       B7          0.9705   calculate D2E/DX2 analytically            !
 !       B8          0.9697   calculate D2E/DX2 analytically            !
 !       B9          1.0832   calculate D2E/DX2 analytically            !
 !       B10         2.5824   calculate D2E/DX2 analytically            !
 !       B11         1.4706   calculate D2E/DX2 analytically            !
 !       B12         1.4827   calculate D2E/DX2 analytically            !
 !       B13         1.0934   calculate D2E/DX2 analytically            !
 !       A1         71.4976   calculate D2E/DX2 analytically            !
 !       A2        101.8861   calculate D2E/DX2 analytically            !
 !       A3         95.6735   calculate D2E/DX2 analytically            !
 !       A4        152.3121   calculate D2E/DX2 analytically            !
 !       A5         90.849    calculate D2E/DX2 analytically            !
 !       A6        119.2975   calculate D2E/DX2 analytically            !
 !       A7        119.8712   calculate D2E/DX2 analytically            !
 !       A8         91.5776   calculate D2E/DX2 analytically            !
 !       A9         92.1461   calculate D2E/DX2 analytically            !
 !       A10       104.28     calculate D2E/DX2 analytically            !
 !       A11        78.4569   calculate D2E/DX2 analytically            !
 !       A12        88.1501   calculate D2E/DX2 analytically            !
 !       D1          4.8846   calculate D2E/DX2 analytically            !
 !       D2         51.1991   calculate D2E/DX2 analytically            !
 !       D3         71.2734   calculate D2E/DX2 analytically            !
 !       D4        146.4568   calculate D2E/DX2 analytically            !
 !       D5         12.8348   calculate D2E/DX2 analytically            !
 !       D6       -121.9545   calculate D2E/DX2 analytically            !
 !       D7         -3.7246   calculate D2E/DX2 analytically            !
 !       D8         88.7353   calculate D2E/DX2 analytically            !
 !       D9         27.8675   calculate D2E/DX2 analytically            !
 !       D10      -177.4712   calculate D2E/DX2 analytically            !
 !       D11       143.0126   calculate D2E/DX2 analytically            !
 ------------------------------------------------------------------------
 Trust Radius=2.00D-02 FncErr=1.00D-07 GrdErr=1.00D-06
 Number of steps in this run=    100 maximum allowed number of steps=    100.
 Search for a saddle point of order  1.
 GradGradGradGradGradGradGradGradGradGradGradGradGradGradGradGradGradGrad

 ---------------------------------------------------------------------------------------------------
                            Z-MATRIX (ANGSTROMS AND DEGREES)
   CD    Cent   Atom    N1       Length/X        N2       Alpha/Y        N3        Beta/Z          J
 ---------------------------------------------------------------------------------------------------
      1      1  C 
      2      2  O        1   2.091226(     1)
      3      3  H        1   3.008123(     2)      2   71.498(    14)
      4      4  H        1   3.463898(     3)      2  101.886(    15)      3    4.885(    26)      0
      5      5  H        1   2.168221(     4)      2   95.673(    16)      3   51.199(    27)      0
      6      6  H        1   2.406621(     5)      2  152.312(    17)      3   71.273(    28)      0
      7      7  H        1   1.083457(     6)      2   90.849(    18)      3  146.457(    29)      0
      8      8  H        2   0.970504(     7)      1  119.297(    19)      7   12.835(    30)      0
      9      9  H        2   0.969666(     8)      1  119.871(    20)      7 -121.955(    31)      0
     10     10  H        1   1.083168(     9)      2   91.578(    21)      9   -3.725(    32)      0
     11     11  C        1   2.582354(    10)      2   92.146(    22)      9   88.735(    33)      0
     12     12  C        1   1.470608(    11)      2  104.280(    23)     11   27.867(    34)      0
     13     13  O       12   1.482716(    12)      1   78.457(    24)      2 -177.471(    35)      0
     14     14  H       11   1.093399(    13)      1   88.150(    25)     12  143.013(    36)      0
 ---------------------------------------------------------------------------------------------------
                         Z-Matrix orientation:                         
 ---------------------------------------------------------------------
 Center     Atomic      Atomic             Coordinates (Angstroms)
 Number     Number       Type             X           Y           Z
 ---------------------------------------------------------------------
      1          6           0        0.000000    0.000000    0.000000
      2          8           0        0.000000    0.000000    2.091226
      3          1           0        2.852635    0.000000    0.954610
      4          1           0        3.377318   -0.288626   -0.713449
      5          1           0        1.351986   -1.681478   -0.214348
      6          1           0        0.359016   -1.059050   -2.131043
      7          1           0       -0.902929   -0.598615   -0.016053
      8          1           0       -0.583907   -0.612691    2.566136
      9          1           0       -0.023311    0.840520    2.574171
     10          1           0       -0.100264    1.078105   -0.029821
     11          6           0        2.577343    0.128459   -0.096703
     12          6           0        1.291494   -0.602621   -0.362741
     13          8           0        0.733630   -0.271586   -1.696026
     14          1           0        2.480577    1.195248   -0.316062
 ---------------------------------------------------------------------
                    Distance matrix (angstroms):
                    1          2          3          4          5
     1  C    0.000000
     2  O    2.091226   0.000000
     3  H    3.008123   3.070736   0.000000
     4  H    3.463898   4.399521   1.772292   0.000000
     5  H    2.168221   3.157675   2.538854   2.508208   0.000000
     6  H    2.406621   4.367841   4.106212   3.422465   2.246581
     7  H    1.083457   2.369440   3.924893   4.347754   2.509294
     8  H    2.702109   0.970504   3.844766   5.152864   3.552617
     9  H    2.708020   0.969666   3.405953   4.862889   4.003468
    10  H    1.083168   2.381429   3.294090   3.798536   3.123840
    11  C    2.582354   3.383229   1.094325   1.092837   2.188883
    12  C    1.470608   2.837792   2.129725   2.138282   1.090693
    13  O    1.867746   3.867202   3.404381   2.820431   2.136710
    14  H    2.771602   3.657447   1.783719   1.778747   3.091863
                    6          7          8          9         10
     6  H    0.000000
     7  H    2.505532   0.000000
     8  H    4.811635   2.601860   0.000000
     9  H    5.088573   3.090970   1.557611   0.000000
    10  H    3.032079   1.858992   3.135553   2.615940   0.000000
    11  C    3.235690   3.556324   4.199229   3.795261   2.841810
    12  C    2.050545   2.221644   3.477866   3.526587   2.207411
    13  O    0.974512   2.368034   4.474180   4.477089   2.300714
    14  H    3.588458   3.841362   4.578949   3.840408   2.599308
                   11         12         13         14
    11  C    0.000000
    12  C    1.502885   0.000000
    13  O    2.473287   1.482716   0.000000
    14  H    1.093399   2.156022   2.666032   0.000000
 Stoichiometry    C3H9O2(1+)
 Framework group  C1[X(C3H9O2)]
 Deg. of freedom    36
 Full point group                 C1      NOp   1
 Largest Abelian subgroup         C1      NOp   1
 Largest concise Abelian subgroup C1      NOp   1
                         Standard orientation:                         
 ---------------------------------------------------------------------
 Center     Atomic      Atomic             Coordinates (Angstroms)
 Number     Number       Type             X           Y           Z
 ---------------------------------------------------------------------
      1          6           0        0.345537   -0.790154    0.241628
      2          8           0        2.203948    0.117026   -0.069117
      3          1           0       -0.090279    2.154326   -0.193008
      4          1           0       -1.834019    1.850493   -0.282876
      5          1           0       -0.600327    0.050266   -1.519115
      6          1           0       -1.802310   -1.563587   -0.520195
      7          1           0        0.685488   -1.692684   -0.252085
      8          1           0        2.835362   -0.291767   -0.682372
      9          1           0        2.716984    0.438739    0.688212
     10          1           0        0.458272   -0.721577    1.316728
     11          6           0       -0.889412    1.474382    0.117813
     12          6           0       -0.610801    0.102804   -0.429738
     13          8           0       -1.515628   -0.918082    0.151230
     14          1           0       -0.947676    1.462051    1.209589
 ---------------------------------------------------------------------
 Rotational constants (GHZ):      6.8157071      3.0716513      2.3198533
 Standard basis: 6-31++G(d,p) (6D, 7F)
 The following finite field(s) will be applied:
 An electric field of              0.0000  0.0000  0.0025
 There are   149 symmetry adapted basis functions of A   symmetry.
 Integral buffers will be    131072 words long.
 Raffenetti 2 integral format.
 Two-electron integral symmetry is turned on.
   149 basis functions,   232 primitive gaussians,   149 cartesian basis functions
    21 alpha electrons       21 beta electrons
       nuclear repulsion energy       194.5289629769 Hartrees.
 NAtoms=   14 NActive=   14 NUniq=   14 SFac= 1.00D+00 NAtFMM=   50 NAOKFM=F Big=F
 One-electron integrals computed using PRISM.
 PrsmSu:  requested number of processors reduced to:  10 ShMem   1 Linda.
 NBasis=   149 RedAO= T  NBF=   149
 NBsUse=   149 1.00D-06 NBFU=   149
 The nuclear repulsion energy is now       194.5289629769 hartrees.
 Harris functional with IExCor=  402 diagonalized for initial guess.
 ExpMin= 3.60D-02 ExpMax= 5.48D+03 ExpMxC= 8.25D+02 IAcc=3 IRadAn=         0 AccDes= 0.00D+00
 HarFok:  IExCor=  402 AccDes= 0.00D+00 IRadAn=         0 IDoV= 1
 ScaDFX=  1.000000  1.000000  1.000000  1.000000
 FoFCou: FMM=F IPFlag=           0 FMFlag=      100000 FMFlg1=           0
         NFxFlg=           0 DoJE=T BraDBF=F KetDBF=T FulRan=T
         Omega=  0.000000  0.000000  1.000000  0.000000  0.000000 ICntrl=     500 IOpCl=  0
         NMat0=    1 NMatS0=    1 NMatT0=    0 NMatD0=    1 NMtDS0=    0 NMtDT0=    0
         I1Cent=           4 NGrid=           0.
 Petite list used in FoFCou.
 Initial guess orbital symmetries:
       Occupied  (A) (A) (A) (A) (A) (A) (A) (A) (A) (A) (A) (A)
                 (A) (A) (A) (A) (A) (A) (A) (A) (A)
       Virtual   (A) (A) (A) (A) (A) (A) (A) (A) (A) (A) (A) (A)
                 (A) (A) (A) (A) (A) (A) (A) (A) (A) (A) (A) (A)
                 (A) (A) (A) (A) (A) (A) (A) (A) (A) (A) (A) (A)
                 (A) (A) (A) (A) (A) (A) (A) (A) (A) (A) (A) (A)
                 (A) (A) (A) (A) (A) (A) (A) (A) (A) (A) (A) (A)
                 (A) (A) (A) (A) (A) (A) (A) (A) (A) (A) (A) (A)
                 (A) (A) (A) (A) (A) (A) (A) (A) (A) (A) (A) (A)
                 (A) (A) (A) (A) (A) (A) (A) (A) (A) (A) (A) (A)
                 (A) (A) (A) (A) (A) (A) (A) (A) (A) (A) (A) (A)
                 (A) (A) (A) (A) (A) (A) (A) (A) (A) (A) (A) (A)
                 (A) (A) (A) (A) (A) (A) (A) (A)
 The electronic state of the initial guess is 1-A.
 Requested convergence on RMS density matrix=1.00D-08 within 128 cycles.
 Requested convergence on MAX density matrix=1.00D-06.
 Requested convergence on             energy=1.00D-06.
 No special actions if energy rises.
 SCF Done:  E(RB3LYP) =  -269.888899979     A.U. after   12 cycles
             Convg  =    0.4073D-08             -V/T =  2.0095
 Range of M.O.s used for correlation:     1   149
 NBasis=   149 NAE=    21 NBE=    21 NFC=     0 NFV=     0
 NROrb=    149 NOA=    21 NOB=    21 NVA=   128 NVB=   128

 **** Warning!!: The largest alpha MO coefficient is  0.41996435D+02

 PrsmSu:  requested number of processors reduced to:  10 ShMem   1 Linda.
 PrsmSu:  requested number of processors reduced to:  17 ShMem   1 Linda.
 Symmetrizing basis deriv contribution to polar:
 IMax=3 JMax=2 DiffMx= 0.00D+00
 G2DrvN: will do     3 centers at a time, making    5 passes doing MaxLOS=2.
 Estimated number of processors is:   15
 Calling FoFCou, ICntrl=  3107 FMM=F I1Cent=   0 AccDes= 0.00D+00.
 CoulSu:  requested number of processors reduced to:  15 ShMem   1 Linda.
 Calling FoFCou, ICntrl=  3107 FMM=F I1Cent=   0 AccDes= 0.00D+00.
 CoulSu:  requested number of processors reduced to:  15 ShMem   1 Linda.
 Calling FoFCou, ICntrl=  3107 FMM=F I1Cent=   0 AccDes= 0.00D+00.
 CoulSu:  requested number of processors reduced to:  15 ShMem   1 Linda.
 Calling FoFCou, ICntrl=  3107 FMM=F I1Cent=   0 AccDes= 0.00D+00.
 CoulSu:  requested number of processors reduced to:  15 ShMem   1 Linda.
 Calling FoFCou, ICntrl=  3107 FMM=F I1Cent=   0 AccDes= 0.00D+00.
 CoulSu:  requested number of processors reduced to:  15 ShMem   1 Linda.
 FoFDir/FoFCou used for L=0 through L=2.
 End of G2Drv Frequency-dependent properties file   721 does not exist.
 End of G2Drv Frequency-dependent properties file   722 does not exist.
          IDoAtm=11111111111111
          Differentiating once with respect to nuclear coordinates.
 PrRfSu:  requested number of processors reduced to:  16 ShMem   1 Linda.
 CalDSu:  requested number of processors reduced to:  21 ShMem   1 Linda.
 PrRfSu:  requested number of processors reduced to:  16 ShMem   1 Linda.
 CalDSu:  requested number of processors reduced to:  21 ShMem   1 Linda.
          There are    45 degrees of freedom in the 1st order CPHF.  IDoFFX=5.
     39 vectors produced by pass  0 Test12= 5.97D-11 2.22D-07 XBig12= 1.08D-01 1.41D-01.
 AX will form    20 AO Fock derivatives at one time.
 PrRfSu:  requested number of processors reduced to:  16 ShMem   1 Linda.
 CalDSu:  requested number of processors reduced to:  22 ShMem   1 Linda.
 PrRfSu:  requested number of processors reduced to:  16 ShMem   1 Linda.
 CalDSu:  requested number of processors reduced to:  22 ShMem   1 Linda.
     39 vectors produced by pass  1 Test12= 5.97D-11 2.22D-07 XBig12= 2.20D-02 4.03D-02.
 PrRfSu:  requested number of processors reduced to:  16 ShMem   1 Linda.
 CalDSu:  requested number of processors reduced to:  22 ShMem   1 Linda.
 PrRfSu:  requested number of processors reduced to:  16 ShMem   1 Linda.
 CalDSu:  requested number of processors reduced to:  22 ShMem   1 Linda.
     39 vectors produced by pass  2 Test12= 5.97D-11 2.22D-07 XBig12= 2.48D-04 3.47D-03.
 PrRfSu:  requested number of processors reduced to:  16 ShMem   1 Linda.
 CalDSu:  requested number of processors reduced to:  22 ShMem   1 Linda.
 PrRfSu:  requested number of processors reduced to:  16 ShMem   1 Linda.
 CalDSu:  requested number of processors reduced to:  22 ShMem   1 Linda.
     39 vectors produced by pass  3 Test12= 5.97D-11 2.22D-07 XBig12= 4.95D-07 1.11D-04.
 PrRfSu:  requested number of processors reduced to:  16 ShMem   1 Linda.
 CalDSu:  requested number of processors reduced to:  22 ShMem   1 Linda.
 PrRfSu:  requested number of processors reduced to:  16 ShMem   1 Linda.
 CalDSu:  requested number of processors reduced to:  22 ShMem   1 Linda.
     12 vectors produced by pass  4 Test12= 5.97D-11 2.22D-07 XBig12= 5.08D-10 3.19D-06.
 PrRfSu:  requested number of processors reduced to:  17 ShMem   1 Linda.
 CalDSu:  requested number of processors reduced to:  23 ShMem   1 Linda.
 Inverted reduced A of dimension   168 with in-core refinement.
 End of Minotr Frequency-dependent properties file   721 does not exist.
 End of Minotr Frequency-dependent properties file   722 does not exist.

 **********************************************************************

            Population analysis using the SCF density.

 **********************************************************************

 Orbital symmetries:
       Occupied  (A) (A) (A) (A) (A) (A) (A) (A) (A) (A) (A) (A)
                 (A) (A) (A) (A) (A) (A) (A) (A) (A)
       Virtual   (A) (A) (A) (A) (A) (A) (A) (A) (A) (A) (A) (A)
                 (A) (A) (A) (A) (A) (A) (A) (A) (A) (A) (A) (A)
                 (A) (A) (A) (A) (A) (A) (A) (A) (A) (A) (A) (A)
                 (A) (A) (A) (A) (A) (A) (A) (A) (A) (A) (A) (A)
                 (A) (A) (A) (A) (A) (A) (A) (A) (A) (A) (A) (A)
                 (A) (A) (A) (A) (A) (A) (A) (A) (A) (A) (A) (A)
                 (A) (A) (A) (A) (A) (A) (A) (A) (A) (A) (A) (A)
                 (A) (A) (A) (A) (A) (A) (A) (A) (A) (A) (A) (A)
                 (A) (A) (A) (A) (A) (A) (A) (A) (A) (A) (A) (A)
                 (A) (A) (A) (A) (A) (A) (A) (A) (A) (A) (A) (A)
                 (A) (A) (A) (A) (A) (A) (A) (A)
 The electronic state is 1-A.
 Alpha  occ. eigenvalues --  -19.41071 -19.39033 -10.48922 -10.46006 -10.35293
 Alpha  occ. eigenvalues --   -1.26972  -1.23733  -0.99001  -0.89966  -0.79981
 Alpha  occ. eigenvalues --   -0.76139  -0.75046  -0.67108  -0.65744  -0.63282
 Alpha  occ. eigenvalues --   -0.60094  -0.58306  -0.55330  -0.54594  -0.54044
 Alpha  occ. eigenvalues --   -0.51757
 Alpha virt. eigenvalues --   -0.25005  -0.17527  -0.15040  -0.12665  -0.12226
 Alpha virt. eigenvalues --   -0.11172  -0.09408  -0.08655  -0.07877  -0.07071
 Alpha virt. eigenvalues --   -0.06962  -0.04804  -0.03813  -0.03259  -0.02429
 Alpha virt. eigenvalues --   -0.01629  -0.00515  -0.00228   0.00295   0.01567
 Alpha virt. eigenvalues --    0.02645   0.03010   0.03471   0.04541   0.04649
 Alpha virt. eigenvalues --    0.05248   0.06019   0.06386   0.07974   0.08725
 Alpha virt. eigenvalues --    0.09445   0.11360   0.11722   0.13414   0.15897
 Alpha virt. eigenvalues --    0.16652   0.17195   0.19894   0.21801   0.22352
 Alpha virt. eigenvalues --    0.22957   0.27037   0.44612   0.47653   0.48383
 Alpha virt. eigenvalues --    0.54602   0.58277   0.60386   0.62102   0.66050
 Alpha virt. eigenvalues --    0.70708   0.76158   0.77454   0.79401   0.81164
 Alpha virt. eigenvalues --    0.82729   0.83654   0.83943   0.90422   0.96373
 Alpha virt. eigenvalues --    0.96819   0.97701   1.01019   1.01651   1.04440
 Alpha virt. eigenvalues --    1.05513   1.09062   1.10504   1.14786   1.21045
 Alpha virt. eigenvalues --    1.31256   1.31787   1.35879   1.36763   1.40610
 Alpha virt. eigenvalues --    1.41581   1.48137   1.49677   1.56697   1.62530
 Alpha virt. eigenvalues --    1.65770   1.70263   1.77851   1.80735   1.86159
 Alpha virt. eigenvalues --    1.88860   1.90452   1.92344   1.96313   1.99928
 Alpha virt. eigenvalues --    2.05285   2.07490   2.10878   2.13201   2.19433
 Alpha virt. eigenvalues --    2.23462   2.29998   2.30998   2.32027   2.34078
 Alpha virt. eigenvalues --    2.37968   2.43630   2.44342   2.46179   2.50042
 Alpha virt. eigenvalues --    2.51012   2.54528   2.59063   2.63783   2.67478
 Alpha virt. eigenvalues --    2.70373   2.75688   2.82270   2.84692   3.09235
 Alpha virt. eigenvalues --    3.13190   3.16657   3.23615   3.27404   3.29352
 Alpha virt. eigenvalues --    3.30455   3.35054   3.36225   4.09763   4.15602
 Alpha virt. eigenvalues --    4.19595   4.35326   4.46480
          Condensed to atoms (all electrons):
              1          2          3          4          5          6
     1  C    5.690227   0.127603   0.004741   0.007818  -0.007430  -0.037879
     2  O    0.127603   8.150117   0.010484  -0.003928  -0.002322   0.000766
     3  H    0.004741   0.010484   0.487150  -0.012710  -0.009862  -0.001034
     4  H    0.007818  -0.003928  -0.012710   0.466764  -0.009535   0.000281
     5  H   -0.007430  -0.002322  -0.009862  -0.009535   0.545499  -0.010134
     6  H   -0.037879   0.000766  -0.001034   0.000281  -0.010134   0.339320
     7  H    0.316293  -0.016853   0.001660  -0.000895  -0.013178  -0.004002
     8  H   -0.017360   0.286028  -0.000869   0.000434  -0.000255   0.000176
     9  H   -0.012621   0.274700  -0.001602   0.000224   0.001193  -0.000329
    10  H    0.389410  -0.004996  -0.001285   0.001724   0.005216   0.002615
    11  C   -0.098531   0.065974   0.434525   0.395223  -0.041382  -0.000691
    12  C   -0.154196  -0.273796  -0.083034  -0.029364   0.336001   0.033256
    13  O   -0.042312   0.023225   0.008554  -0.006253  -0.017602   0.240548
    14  H   -0.016617  -0.000949  -0.031047  -0.019385   0.010008  -0.000153
              7          8          9         10         11         12
     1  C    0.316293  -0.017360  -0.012621   0.389410  -0.098531  -0.154196
     2  O   -0.016853   0.286028   0.274700  -0.004996   0.065974  -0.273796
     3  H    0.001660  -0.000869  -0.001602  -0.001285   0.434525  -0.083034
     4  H   -0.000895   0.000434   0.000224   0.001724   0.395223  -0.029364
     5  H   -0.013178  -0.000255   0.001193   0.005216  -0.041382   0.336001
     6  H   -0.004002   0.000176  -0.000329   0.002615  -0.000691   0.033256
     7  H    0.485044  -0.001847   0.001953  -0.033363  -0.003381   0.046065
     8  H   -0.001847   0.311404  -0.016777   0.002562   0.001277   0.015407
     9  H    0.001953  -0.016777   0.326684  -0.002675  -0.019052   0.039768
    10  H   -0.033363   0.002562  -0.002675   0.452642   0.021753  -0.075321
    11  C   -0.003381   0.001277  -0.019052   0.021753   5.725859  -0.432746
    12  C    0.046065   0.015407   0.039768  -0.075321  -0.432746   6.524061
    13  O   -0.009028   0.000759  -0.001765  -0.007932   0.022490   0.015844
    14  H    0.000170  -0.000411   0.000148   0.004236   0.384642  -0.021605
             13         14
     1  C   -0.042312  -0.016617
     2  O    0.023225  -0.000949
     3  H    0.008554  -0.031047
     4  H   -0.006253  -0.019385
     5  H   -0.017602   0.010008
     6  H    0.240548  -0.000153
     7  H   -0.009028   0.000170
     8  H    0.000759  -0.000411
     9  H   -0.001765   0.000148
    10  H   -0.007932   0.004236
    11  C    0.022490   0.384642
    12  C    0.015844  -0.021605
    13  O    8.131599   0.001947
    14  H    0.001947   0.508812
 Mulliken atomic charges:
              1
     1  C   -0.149145
     2  O   -0.636053
     3  H    0.194330
     4  H    0.209601
     5  H    0.213782
     6  H    0.437259
     7  H    0.231361
     8  H    0.419473
     9  H    0.410150
    10  H    0.245414
    11  C   -0.455960
    12  C    0.059660
    13  O   -0.360074
    14  H    0.180204
 Sum of Mulliken atomic charges =   1.00000
 Mulliken charges with hydrogens summed into heavy atoms:
              1
     1  C    0.327629
     2  O    0.193570
    11  C    0.128174
    12  C    0.273442
    13  O    0.077184
 Sum of Mulliken charges with hydrogens summed into heavy atoms =   1.00000
 APT atomic charges:
              1
     1  C   -0.487441
     2  O   -1.450281
     3  H    0.406703
     4  H    0.569277
     5  H    0.453730
     6  H    0.761228
     7  H    0.532181
     8  H    0.832928
     9  H    0.763818
    10  H    0.454169
    11  C   -1.213367
    12  C   -0.263186
    13  O   -0.736566
    14  H    0.376807
 Sum of APT charges=   1.00000
 APT Atomic charges with hydrogens summed into heavy atoms:
              1
     1  C    0.498908
     2  O    0.146466
     3  H    0.000000
     4  H    0.000000
     5  H    0.000000
     6  H    0.000000
     7  H    0.000000
     8  H    0.000000
     9  H    0.000000
    10  H    0.000000
    11  C    0.139420
    12  C    0.190544
    13  O    0.024662
    14  H    0.000000
 Sum of APT charges=   1.00000
 Electronic spatial extent (au):  <R**2>=            535.9658
 Charge=              1.0000 electrons
 Dipole moment (field-independent basis, Debye):
    X=              3.0444    Y=             -1.9421    Z=             -1.3623  Tot=              3.8596
 Quadrupole moment (field-independent basis, Debye-Ang):
   XX=            -11.5970   YY=            -22.7524   ZZ=            -25.6516
   XY=              0.1308   XZ=              3.9071   YZ=              3.2808
 Traceless Quadrupole moment (field-independent basis, Debye-Ang):
   XX=              8.4033   YY=             -2.7521   ZZ=             -5.6513
   XY=              0.1308   XZ=              3.9071   YZ=              3.2808
 Octapole moment (field-independent basis, Debye-Ang**2):
  XXX=             49.9749  YYY=             -9.4374  ZZZ=             -0.5515  XYY=             -5.0785
  XXY=             -5.8237  XXZ=             -6.2177  XZZ=              5.9760  YZZ=             -2.4950
  YYZ=             -4.1097  XYZ=             -0.0204
 Hexadecapole moment (field-independent basis, Debye-Ang**3):
 XXXX=           -198.8948 YYYY=           -177.4732 ZZZZ=            -52.3686 XXXY=             14.5881
 XXXZ=              9.0520 YYYX=             13.0482 YYYZ=              6.9594 ZZZX=              3.3917
 ZZZY=              2.5533 XXYY=            -75.1686 XXZZ=            -54.5049 YYZZ=            -41.9009
 XXYZ=             17.4402 YYXZ=              6.5310 ZZXY=              2.7226
 N-N= 1.945289629769D+02 E-N=-1.010760600993D+03  KE= 2.673429108538D+02
  Exact polarizability:   0.000   0.000   0.000   0.000   0.000   0.000
 Approx polarizability:  81.925   7.259  57.631  -0.080   0.336  54.095
 PrsmSu:  requested number of processors reduced to:  10 ShMem   1 Linda.
 PrsmSu:  requested number of processors reduced to:  10 ShMem   1 Linda.
 Calling FoFJK, ICntrl=    100147 FMM=F ISym2X=0 I1Cent= 0 IOpClX= 0 NMat=1 NMatS=1 NMatT=0.
 CoulSu:  requested number of processors reduced to:  10 ShMem   1 Linda.
 CalDSu:  requested number of processors reduced to:  23 ShMem   1 Linda.
 ***** Axes restored to original set *****
 -------------------------------------------------------------------
 Center     Atomic                   Forces (Hartrees/Bohr)
 Number     Number              X              Y              Z
 -------------------------------------------------------------------
      1        6           0.000220408   -0.001475034    0.000268315
      2        8          -0.000580932    0.000251075   -0.000124723
      3        1           0.000012069   -0.000117572   -0.000051176
      4        1          -0.000005224   -0.000063054    0.000055782
      5        1           0.000028387    0.000003622    0.000018536
      6        1           0.000044083   -0.000263395   -0.000011605
      7        1          -0.000075287    0.000041167    0.000023575
      8        1           0.000442314   -0.000493298    0.000073738
      9        1           0.000097813   -0.000228977    0.000039710
     10        1           0.000127500   -0.000085507    0.000014254
     11        6           0.000028883   -0.000068239    0.000035692
     12        6           0.000041630   -0.000225612    0.000089674
     13        8          -0.000068679    0.000231537   -0.000046716
     14        1          -0.000056371    0.000034392   -0.000013568
 -------------------------------------------------------------------
 Cartesian Forces:  Max     0.001475034 RMS     0.000287885
 -----------------------------------------------------------------------------------------------
                       Internal Coordinate Forces (Hartree/Bohr or radian)
  Cent   Atom   N1       Length/X         N2         Alpha/Y        N3         Beta/Z          J
 -----------------------------------------------------------------------------------------------
      1  C 
      2  O        1  -0.000011(     1)
      3  H        1  -0.000005(     2)      2   0.000298(    14)
      4  H        1  -0.000011(     3)      2  -0.000358(    15)      3   0.000405(    26)     0
      5  H        1   0.000013(     4)      2  -0.000082(    16)      3  -0.000099(    27)     0
      6  H        1   0.000133(     5)      2  -0.001037(    17)      3   0.000090(    28)     0
      7  H        1   0.000040(     6)      2  -0.000049(    18)      3  -0.000244(    29)     0
      8  H        2   0.000081(     7)      1   0.000071(    19)      7   0.001056(    30)     0
      9  H        2  -0.000181(     8)      1   0.000274(    20)      7  -0.000657(    31)     0
     10  H        1  -0.000097(     9)      2  -0.000024(    21)      9   0.000244(    32)     0
     11  C        1  -0.000030(    10)      2  -0.000056(    22)      9   0.000268(    33)     0
     12  C        1  -0.000037(    11)      2   0.000219(    23)     11   0.000229(    34)     0
     13  O       12   0.000120(    12)      1  -0.000342(    24)      2   0.000486(    35)     0
     14  H       11   0.000041(    13)      1  -0.000109(    25)     12  -0.000016(    36)     0
 -----------------------------------------------------------------------------------------------
 Internal  Forces:  Max     0.001056436 RMS     0.000327383

 GradGradGradGradGradGradGradGradGradGradGradGradGradGradGradGradGradGrad
 Berny optimization.
 Search for a saddle point.
 Step number   1 out of a maximum of  100
 All quantities printed in internal units (Hartrees-Bohrs-Radians)
 Swaping is turned off.
 Second derivative matrix not updated -- analytic derivatives used.
 ITU=  0
     Eigenvalues ---   -0.01930   0.00024   0.00715   0.01030   0.01215
     Eigenvalues ---    0.02351   0.02899   0.03367   0.03847   0.06371
     Eigenvalues ---    0.07101   0.10867   0.13365   0.15426   0.16465
     Eigenvalues ---    0.21249   0.25024   0.30273   0.33578   0.34118
     Eigenvalues ---    0.35887   0.37795   0.38136   0.46222   0.52444
     Eigenvalues ---    0.52812   0.54332   0.58752   0.88507   1.68064
     Eigenvalues ---    3.58202   4.49045   5.60777   7.78808  19.09028
     Eigenvalues ---   30.25365
 Eigenvectors required to have negative eigenvalues:
                          B1        B5        A11       A8        A5
   1                    0.74505  -0.40613  -0.32913  -0.17620  -0.17442
                          A10       D11       B12       A7        D5
   1                   -0.13181   0.12416   0.11268   0.10626   0.10449
 RFO step:  Lambda0=2.390074160D-06 Lambda=-3.34470549D-04.
 Linear search not attempted -- option 19 set.
 Maximum step size (   0.020) exceeded in Quadratic search.
    -- Step size scaled by   0.030
 Variable       Old X    -DE/DX   Delta X   Delta X   Delta X     New X
                                 (Linear)    (Quad)   (Total)
    B1        3.95185  -0.00001   0.00000  -0.00034  -0.00034   3.95151
    B2        5.68453   0.00000   0.00000  -0.00064  -0.00064   5.68389
    B3        6.54582  -0.00001   0.00000   0.00009   0.00009   6.54591
    B4        4.09734   0.00001   0.00000   0.00011   0.00011   4.09745
    B5        4.54785   0.00013   0.00000   0.00022   0.00022   4.54807
    B6        2.04744   0.00004   0.00000   0.00000   0.00000   2.04744
    B7        1.83399   0.00008   0.00000   0.00001   0.00001   1.83399
    B8        1.83240  -0.00018   0.00000  -0.00001  -0.00001   1.83239
    B9        2.04689  -0.00010   0.00000   0.00000   0.00000   2.04689
   B10        4.87994  -0.00003   0.00000  -0.00009  -0.00009   4.87986
   B11        2.77905  -0.00004   0.00000   0.00004   0.00004   2.77909
   B12        2.80193   0.00012   0.00000  -0.00002  -0.00002   2.80190
   B13        2.06622   0.00004   0.00000   0.00000   0.00000   2.06622
    A1        1.24787   0.00030   0.00000  -0.00019  -0.00019   1.24768
    A2        1.77825  -0.00036   0.00000  -0.00020  -0.00020   1.77805
    A3        1.66982  -0.00008   0.00000   0.00019   0.00019   1.67001
    A4        2.65835  -0.00104   0.00000   0.00018   0.00018   2.65853
    A5        1.58561  -0.00005   0.00000   0.00035   0.00035   1.58596
    A6        2.08213   0.00007   0.00000   0.00006   0.00006   2.08219
    A7        2.09215   0.00027   0.00000   0.00057   0.00057   2.09272
    A8        1.59833  -0.00002   0.00000  -0.00032  -0.00032   1.59801
    A9        1.60825  -0.00006   0.00000  -0.00011  -0.00011   1.60814
   A10        1.82003   0.00022   0.00000   0.00006   0.00006   1.82009
   A11        1.36933  -0.00034   0.00000   0.00009   0.00009   1.36942
   A12        1.53851  -0.00011   0.00000   0.00006   0.00006   1.53856
    D1        0.08525   0.00041   0.00000   0.00011   0.00011   0.08537
    D2        0.89359  -0.00010   0.00000   0.00007   0.00007   0.89366
    D3        1.24396   0.00009   0.00000  -0.00030  -0.00030   1.24366
    D4        2.55615  -0.00024   0.00000   0.00029   0.00029   2.55644
    D5        0.22401   0.00106   0.00000   0.01082   0.01082   0.23482
    D6       -2.12851  -0.00066   0.00000   0.00974   0.00974  -2.11877
    D7       -0.06501   0.00024   0.00000   0.00976   0.00976  -0.05524
    D8        1.54872   0.00027   0.00000   0.00954   0.00954   1.55826
    D9        0.48638   0.00023   0.00000  -0.00004  -0.00004   0.48634
   D10       -3.09746   0.00049   0.00000   0.00027   0.00027  -3.09718
   D11        2.49604  -0.00002   0.00000  -0.00049  -0.00049   2.49555
         Item               Value     Threshold  Converged?
 Maximum Force            0.001056     0.000450     NO 
 RMS     Force            0.000327     0.000300     NO 
 Maximum Displacement     0.010816     0.001800     NO 
 RMS     Displacement     0.003333     0.001200     NO 
 Predicted change in Energy=-9.936164D-06
 GradGradGradGradGradGradGradGradGradGradGradGradGradGradGradGradGradGrad

 ---------------------------------------------------------------------------------------------------
                            Z-MATRIX (ANGSTROMS AND DEGREES)
   CD    Cent   Atom    N1       Length/X        N2       Alpha/Y        N3        Beta/Z          J
 ---------------------------------------------------------------------------------------------------
      1      1  C 
      2      2  O        1   2.091047(     1)
      3      3  H        1   3.007787(     2)      2   71.487(    14)
      4      4  H        1   3.463948(     3)      2  101.875(    15)      3    4.891(    26)      0
      5      5  H        1   2.168279(     4)      2   95.684(    16)      3   51.203(    27)      0
      6      6  H        1   2.406737(     5)      2  152.322(    17)      3   71.256(    28)      0
      7      7  H        1   1.083456(     6)      2   90.869(    18)      3  146.473(    29)      0
      8      8  H        2   0.970507(     7)      1  119.301(    19)      7   13.454(    30)      0
      9      9  H        2   0.969661(     8)      1  119.904(    20)      7 -121.396(    31)      0
     10     10  H        1   1.083168(     9)      2   91.559(    21)      9   -3.165(    32)      0
     11     11  C        1   2.582309(    10)      2   92.140(    22)      9   89.282(    33)      0
     12     12  C        1   1.470629(    11)      2  104.284(    23)     11   27.865(    34)      0
     13     13  O       12   1.482704(    12)      1   78.462(    24)      2 -177.456(    35)      0
     14     14  H       11   1.093399(    13)      1   88.153(    25)     12  142.985(    36)      0
 ---------------------------------------------------------------------------------------------------
                         Z-Matrix orientation:                         
 ---------------------------------------------------------------------
 Center     Atomic      Atomic             Coordinates (Angstroms)
 Number     Number       Type             X           Y           Z
 ---------------------------------------------------------------------
      1          6           0        0.000000    0.000000    0.000000
      2          8           0        0.000000    0.000000    2.091047
      3          1           0        2.852134    0.000000    0.955048
      4          1           0        3.377475   -0.289027   -0.712783
      5          1           0        1.351881   -1.681585   -0.214760
      6          1           0        0.359227   -1.058630   -2.131347
      7          1           0       -0.903095   -0.598354   -0.016431
      8          1           0       -0.577406   -0.618787    2.566007
      9          1           0       -0.031248    0.839982    2.574468
     10          1           0       -0.099933    1.078145   -0.029471
     11          6           0        2.577319    0.128251   -0.096409
     12          6           0        1.291465   -0.602674   -0.362837
     13          8           0        0.733823   -0.271274   -1.696112
     14          1           0        2.480718    1.195017   -0.315954
 ---------------------------------------------------------------------
                    Distance matrix (angstroms):
                    1          2          3          4          5
     1  C    0.000000
     2  O    2.091047   0.000000
     3  H    3.007787   3.070042   0.000000
     4  H    3.463948   4.399129   1.772337   0.000000
     5  H    2.168279   3.157856   2.539082   2.508042   0.000000
     6  H    2.406737   4.367877   4.106228   3.422636   2.246495
     7  H    1.083456   2.369614   3.924734   4.347858   2.509510
     8  H    2.701979   0.970507   3.839249   5.147844   3.547444
     9  H    2.708215   0.969661   3.412035   4.868272   4.006387
    10  H    1.083168   2.380961   3.293383   3.798479   3.123813
    11  C    2.582309   3.382896   1.094318   1.092835   2.188884
    12  C    1.470629   2.837718   2.129724   2.138288   1.090700
    13  O    1.867855   3.867125   3.404332   2.820664   2.136674
    14  H    2.771616   3.657278   1.783665   1.778773   3.091821
                    6          7          8          9         10
     6  H    0.000000
     7  H    2.505629   0.000000
     8  H    4.809977   2.602975   0.000000
     9  H    5.089390   3.088961   1.557680   0.000000
    10  H    3.032247   1.859002   3.137525   2.615709   0.000000
    11  C    3.235675   3.556351   4.195095   3.800627   2.841559
    12  C    2.050510   2.221736   3.474345   3.529673   2.207323
    13  O    0.974516   2.368081   4.472778   4.478624   2.300820
    14  H    3.588217   3.841365   4.576867   3.845850   2.599133
                   11         12         13         14
    11  C    0.000000
    12  C    1.502883   0.000000
    13  O    2.473287   1.482704   0.000000
    14  H    1.093399   2.155972   2.665800   0.000000
 Stoichiometry    C3H9O2(1+)
 Framework group  C1[X(C3H9O2)]
 Deg. of freedom    36
 Full point group                 C1      NOp   1
 Largest Abelian subgroup         C1      NOp   1
 Largest concise Abelian subgroup C1      NOp   1
                         Standard orientation:                         
 ---------------------------------------------------------------------
 Center     Atomic      Atomic             Coordinates (Angstroms)
 Number     Number       Type             X           Y           Z
 ---------------------------------------------------------------------
      1          6           0        0.345536   -0.790205    0.241529
      2          8           0        2.203813    0.117059   -0.068556
      3          1           0       -0.089675    2.154165   -0.192130
      4          1           0       -1.833520    1.850938   -0.282890
      5          1           0       -0.600389    0.050535   -1.519100
      6          1           0       -1.802494   -1.563300   -0.520490
      7          1           0        0.685353   -1.692817   -0.252123
      8          1           0        2.831927   -0.286668   -0.688523
      9          1           0        2.720665    0.431595    0.689187
     10          1           0        0.458257   -0.721560    1.316626
     11          6           0       -0.889201    1.474416    0.118083
     12          6           0       -0.610794    0.102893   -0.429708
     13          8           0       -1.515748   -0.917968    0.151079
     14          1           0       -0.947887    1.461751    1.209832
 ---------------------------------------------------------------------
 Rotational constants (GHZ):      6.8159137      3.0716613      2.3200630
 Standard basis: 6-31++G(d,p) (6D, 7F)
 The following finite field(s) will be applied:
 An electric field of              0.0000  0.0000  0.0025
 There are   149 symmetry adapted basis functions of A   symmetry.
 Integral buffers will be    131072 words long.
 Raffenetti 2 integral format.
 Two-electron integral symmetry is turned on.
   149 basis functions,   232 primitive gaussians,   149 cartesian basis functions
    21 alpha electrons       21 beta electrons
       nuclear repulsion energy       194.5306257593 Hartrees.
 NAtoms=   14 NActive=   14 NUniq=   14 SFac= 1.00D+00 NAtFMM=   50 NAOKFM=F Big=F
 One-electron integrals computed using PRISM.
 PrsmSu:  requested number of processors reduced to:  10 ShMem   1 Linda.
 NBasis=   149 RedAO= T  NBF=   149
 NBsUse=   149 1.00D-06 NBFU=   149
 The nuclear repulsion energy is now       194.5306257593 hartrees.
 Initial guess read from the read-write file.
 B after Tr=     0.000000    0.000000    0.000000
         Rot=    1.000000    0.000000    0.000000    0.000000 Ang=   0.00 deg.
 Initial guess orbital symmetries:
       Occupied  (A) (A) (A) (A) (A) (A) (A) (A) (A) (A) (A) (A)
                 (A) (A) (A) (A) (A) (A) (A) (A) (A)
       Virtual   (A) (A) (A) (A) (A) (A) (A) (A) (A) (A) (A) (A)
                 (A) (A) (A) (A) (A) (A) (A) (A) (A) (A) (A) (A)
                 (A) (A) (A) (A) (A) (A) (A) (A) (A) (A) (A) (A)
                 (A) (A) (A) (A) (A) (A) (A) (A) (A) (A) (A) (A)
                 (A) (A) (A) (A) (A) (A) (A) (A) (A) (A) (A) (A)
                 (A) (A) (A) (A) (A) (A) (A) (A) (A) (A) (A) (A)
                 (A) (A) (A) (A) (A) (A) (A) (A) (A) (A) (A) (A)
                 (A) (A) (A) (A) (A) (A) (A) (A) (A) (A) (A) (A)
                 (A) (A) (A) (A) (A) (A) (A) (A) (A) (A) (A) (A)
                 (A) (A) (A) (A) (A) (A) (A) (A) (A) (A) (A) (A)
                 (A) (A) (A) (A) (A) (A) (A) (A)
 Requested convergence on RMS density matrix=1.00D-08 within 128 cycles.
 Requested convergence on MAX density matrix=1.00D-06.
 Requested convergence on             energy=1.00D-06.
 No special actions if energy rises.
 SCF Done:  E(RB3LYP) =  -269.888909572     A.U. after    8 cycles
             Convg  =    0.4609D-08             -V/T =  2.0095
 PrsmSu:  requested number of processors reduced to:  10 ShMem   1 Linda.
 PrsmSu:  requested number of processors reduced to:  23 ShMem   1 Linda.
 Calling FoFJK, ICntrl=      2127 FMM=F ISym2X=0 I1Cent= 0 IOpClX= 0 NMat=1 NMatS=1 NMatT=0.
 CoulSu:  requested number of processors reduced to:  16 ShMem   1 Linda.
 ***** Axes restored to original set *****
 -------------------------------------------------------------------
 Center     Atomic                   Forces (Hartrees/Bohr)
 Number     Number              X              Y              Z
 -------------------------------------------------------------------
      1        6           0.000221004   -0.001487749    0.000270395
      2        8          -0.000565419    0.000224543   -0.000120324
      3        1           0.000011539   -0.000118222   -0.000049871
      4        1          -0.000005141   -0.000061121    0.000054027
      5        1           0.000027535    0.000003498    0.000017988
      6        1           0.000042601   -0.000255553   -0.000011766
      7        1          -0.000074936    0.000042707    0.000022986
      8        1           0.000435372   -0.000475357    0.000071235
      9        1           0.000090940   -0.000221425    0.000038270
     10        1           0.000125214   -0.000082747    0.000013830
     11        6           0.000028213   -0.000066768    0.000034969
     12        6           0.000040017   -0.000218968    0.000086209
     13        8          -0.000066188    0.000224825   -0.000043926
     14        1          -0.000054773    0.000033265   -0.000013294
 -------------------------------------------------------------------
 Cartesian Forces:  Max     0.001487749 RMS     0.000286449
 -----------------------------------------------------------------------------------------------
                       Internal Coordinate Forces (Hartree/Bohr or radian)
  Cent   Atom   N1       Length/X         N2         Alpha/Y        N3         Beta/Z          J
 -----------------------------------------------------------------------------------------------
      1  C 
      2  O        1  -0.000011(     1)
      3  H        1  -0.000005(     2)      2   0.000290(    14)
      4  H        1  -0.000011(     3)      2  -0.000346(    15)      3   0.000393(    26)     0
      5  H        1   0.000013(     4)      2  -0.000079(    16)      3  -0.000096(    27)     0
      6  H        1   0.000129(     5)      2  -0.001005(    17)      3   0.000088(    28)     0
      7  H        1   0.000039(     6)      2  -0.000048(    18)      3  -0.000236(    29)     0
      8  H        2   0.000079(     7)      1   0.000069(    19)      7   0.001028(    30)     0
      9  H        2  -0.000176(     8)      1   0.000266(    20)      7  -0.000634(    31)     0
     10  H        1  -0.000094(     9)      2  -0.000023(    21)      9   0.000239(    32)     0
     11  C        1  -0.000029(    10)      2  -0.000055(    22)      9   0.000263(    33)     0
     12  C        1  -0.000036(    11)      2   0.000212(    23)     11   0.000222(    34)     0
     13  O       12   0.000115(    12)      1  -0.000333(    24)      2   0.000472(    35)     0
     14  H       11   0.000040(    13)      1  -0.000106(    25)     12  -0.000016(    36)     0
 -----------------------------------------------------------------------------------------------
 Internal  Forces:  Max     0.001027778 RMS     0.000317744

 GradGradGradGradGradGradGradGradGradGradGradGradGradGradGradGradGradGrad
 Berny optimization.
 Search for a saddle point.
 Step number   2 out of a maximum of  100
 All quantities printed in internal units (Hartrees-Bohrs-Radians)
 Swaping is turned off.
 Update second derivatives using D2CorN and points    2
 ITU=  0  0
     Eigenvalues ---   -0.01930   0.00024   0.00715   0.01030   0.01215
     Eigenvalues ---    0.02351   0.02899   0.03367   0.03847   0.06371
     Eigenvalues ---    0.07101   0.10867   0.13365   0.15426   0.16465
     Eigenvalues ---    0.21249   0.25024   0.30273   0.33578   0.34118
     Eigenvalues ---    0.35887   0.37795   0.38136   0.46222   0.52444
     Eigenvalues ---    0.52812   0.54332   0.58752   0.88507   1.68064
     Eigenvalues ---    3.58202   4.49045   5.60777   7.78808  19.09028
     Eigenvalues ---   30.25365
 Eigenvectors required to have negative eigenvalues:
                          B1        B5        A11       A8        A5
   1                    0.74505  -0.40613  -0.32913  -0.17620  -0.17442
                          A10       D11       B12       A7        D5
   1                   -0.13181   0.12416   0.11268   0.10626   0.10449
 RFO step:  Lambda0=2.253504442D-06 Lambda=-3.26400595D-04.
 Linear search not attempted -- option 19 set.
 Maximum step size (   0.020) exceeded in Quadratic search.
    -- Step size scaled by   0.030
 Variable       Old X    -DE/DX   Delta X   Delta X   Delta X     New X
                                 (Linear)    (Quad)   (Total)
    B1        3.95151  -0.00001   0.00000  -0.00032  -0.00032   3.95118
    B2        5.68389   0.00000   0.00000  -0.00063  -0.00063   5.68326
    B3        6.54591  -0.00001   0.00000   0.00009   0.00009   6.54600
    B4        4.09745   0.00001   0.00000   0.00011   0.00011   4.09756
    B5        4.54807   0.00013   0.00000   0.00021   0.00021   4.54828
    B6        2.04744   0.00004   0.00000   0.00000   0.00000   2.04743
    B7        1.83399   0.00008   0.00000   0.00001   0.00001   1.83400
    B8        1.83239  -0.00018   0.00000  -0.00001  -0.00001   1.83238
    B9        2.04689  -0.00009   0.00000   0.00000   0.00000   2.04689
   B10        4.87986  -0.00003   0.00000  -0.00008  -0.00008   4.87977
   B11        2.77909  -0.00004   0.00000   0.00004   0.00004   2.77912
   B12        2.80190   0.00011   0.00000  -0.00002  -0.00002   2.80188
   B13        2.06622   0.00004   0.00000   0.00000   0.00000   2.06622
    A1        1.24768   0.00029   0.00000  -0.00019  -0.00019   1.24749
    A2        1.77805  -0.00035   0.00000  -0.00020  -0.00020   1.77785
    A3        1.67001  -0.00008   0.00000   0.00019   0.00019   1.67020
    A4        2.65853  -0.00100   0.00000   0.00019   0.00019   2.65871
    A5        1.58596  -0.00005   0.00000   0.00035   0.00035   1.58631
    A6        2.08219   0.00007   0.00000   0.00004   0.00004   2.08223
    A7        2.09272   0.00027   0.00000   0.00054   0.00054   2.09326
    A8        1.59801  -0.00002   0.00000  -0.00033  -0.00033   1.59768
    A9        1.60814  -0.00005   0.00000  -0.00012  -0.00012   1.60802
   A10        1.82009   0.00021   0.00000   0.00006   0.00006   1.82016
   A11        1.36942  -0.00033   0.00000   0.00008   0.00008   1.36950
   A12        1.53856  -0.00011   0.00000   0.00005   0.00005   1.53862
    D1        0.08537   0.00039   0.00000   0.00011   0.00011   0.08547
    D2        0.89366  -0.00010   0.00000   0.00006   0.00006   0.89373
    D3        1.24366   0.00009   0.00000  -0.00031  -0.00031   1.24335
    D4        2.55644  -0.00024   0.00000   0.00028   0.00028   2.55672
    D5        0.23482   0.00103   0.00000   0.01077   0.01077   0.24559
    D6       -2.11877  -0.00063   0.00000   0.00976   0.00976  -2.10900
    D7       -0.05524   0.00024   0.00000   0.00978   0.00978  -0.04546
    D8        1.55826   0.00026   0.00000   0.00956   0.00956   1.56782
    D9        0.48634   0.00022   0.00000  -0.00004  -0.00004   0.48630
   D10       -3.09718   0.00047   0.00000   0.00028   0.00028  -3.09690
   D11        2.49555  -0.00002   0.00000  -0.00048  -0.00048   2.49507
         Item               Value     Threshold  Converged?
 Maximum Force            0.001028     0.000450     NO 
 RMS     Force            0.000318     0.000300     NO 
 Maximum Displacement     0.010765     0.001800     NO 
 RMS     Displacement     0.003333     0.001200     NO 
 Predicted change in Energy=-9.695125D-06
 GradGradGradGradGradGradGradGradGradGradGradGradGradGradGradGradGradGrad

 ---------------------------------------------------------------------------------------------------
                            Z-MATRIX (ANGSTROMS AND DEGREES)
   CD    Cent   Atom    N1       Length/X        N2       Alpha/Y        N3        Beta/Z          J
 ---------------------------------------------------------------------------------------------------
      1      1  C 
      2      2  O        1   2.090876(     1)
      3      3  H        1   3.007454(     2)      2   71.476(    14)
      4      4  H        1   3.463997(     3)      2  101.863(    15)      3    4.897(    26)      0
      5      5  H        1   2.168337(     4)      2   95.695(    16)      3   51.207(    27)      0
      6      6  H        1   2.406847(     5)      2  152.333(    17)      3   71.239(    28)      0
      7      7  H        1   1.083456(     6)      2   90.889(    18)      3  146.489(    29)      0
      8      8  H        2   0.970510(     7)      1  119.303(    19)      7   14.071(    30)      0
      9      9  H        2   0.969656(     8)      1  119.935(    20)      7 -120.837(    31)      0
     10     10  H        1   1.083168(     9)      2   91.540(    21)      9   -2.605(    32)      0
     11     11  C        1   2.582264(    10)      2   92.133(    22)      9   89.829(    33)      0
     12     12  C        1   1.470649(    11)      2  104.287(    23)     11   27.863(    34)      0
     13     13  O       12   1.482693(    12)      1   78.467(    24)      2 -177.439(    35)      0
     14     14  H       11   1.093398(    13)      1   88.156(    25)     12  142.957(    36)      0
 ---------------------------------------------------------------------------------------------------
                         Z-Matrix orientation:                         
 ---------------------------------------------------------------------
 Center     Atomic      Atomic             Coordinates (Angstroms)
 Number     Number       Type             X           Y           Z
 ---------------------------------------------------------------------
      1          6           0        0.000000    0.000000    0.000000
      2          8           0        0.000000    0.000000    2.090876
      3          1           0        2.851635    0.000000    0.955489
      4          1           0        3.377633   -0.289405   -0.712118
      5          1           0        1.351783   -1.681686   -0.215178
      6          1           0        0.359438   -1.058193   -2.131653
      7          1           0       -0.903258   -0.598096   -0.016810
      8          1           0       -0.570876   -0.624793    2.565874
      9          1           0       -0.039197    0.839381    2.574752
     10          1           0       -0.099606    1.078185   -0.029115
     11          6           0        2.577295    0.128056   -0.096109
     12          6           0        1.291440   -0.602720   -0.362933
     13          8           0        0.734016   -0.270946   -1.696193
     14          1           0        2.480854    1.194800   -0.315826
 ---------------------------------------------------------------------
                    Distance matrix (angstroms):
                    1          2          3          4          5
     1  C    0.000000
     2  O    2.090876   0.000000
     3  H    3.007454   3.069353   0.000000
     4  H    3.463997   4.398743   1.772383   0.000000
     5  H    2.168337   3.158049   2.539308   2.507880   0.000000
     6  H    2.406847   4.367920   4.106247   3.422808   2.246412
     7  H    1.083456   2.369796   3.924577   4.347961   2.509726
     8  H    2.701847   0.970510   3.833704   5.142805   3.542301
     9  H    2.708402   0.969656   3.418111   4.873644   4.009278
    10  H    1.083168   2.380497   3.292681   3.798419   3.123786
    11  C    2.582264   3.382566   1.094311   1.092832   2.188886
    12  C    1.470649   2.837652   2.129722   2.138293   1.090706
    13  O    1.867957   3.867052   3.404282   2.820896   2.136639
    14  H    2.771630   3.657103   1.783611   1.778799   3.091780
                    6          7          8          9         10
     6  H    0.000000
     7  H    2.505724   0.000000
     8  H    4.808335   2.604121   0.000000
     9  H    5.090181   3.086929   1.557744   0.000000
    10  H    3.032408   1.859012   3.139459   2.615492   0.000000
    11  C    3.235663   3.556379   4.190933   3.805984   2.841309
    12  C    2.050477   2.221828   3.470824   3.532739   2.207235
    13  O    0.974521   2.368126   4.471373   4.480141   2.300920
    14  H    3.587981   3.841367   4.574732   3.851289   2.598957
                   11         12         13         14
    11  C    0.000000
    12  C    1.502881   0.000000
    13  O    2.473288   1.482693   0.000000
    14  H    1.093398   2.155923   2.665571   0.000000
 Stoichiometry    C3H9O2(1+)
 Framework group  C1[X(C3H9O2)]
 Deg. of freedom    36
 Full point group                 C1      NOp   1
 Largest Abelian subgroup         C1      NOp   1
 Largest concise Abelian subgroup C1      NOp   1
                         Standard orientation:                         
 ---------------------------------------------------------------------
 Center     Atomic      Atomic             Coordinates (Angstroms)
 Number     Number       Type             X           Y           Z
 ---------------------------------------------------------------------
      1          6           0       -0.345530   -0.790260   -0.241421
      2          8           0       -2.203683    0.117094    0.067996
      3          1           0        0.089073    2.154005    0.191248
      4          1           0        1.833024    1.851383    0.282884
      5          1           0        0.600460    0.050814    1.519086
      6          1           0        1.802680   -1.563012    0.520787
      7          1           0       -0.685214   -1.692951    0.252179
      8          1           0       -2.828482   -0.281525    0.694588
      9          1           0       -2.724330    0.424417   -0.690101
     10          1           0       -0.458242   -0.721555   -1.316515
     11          6           0        0.888987    1.474449   -0.118362
     12          6           0        0.610790    0.102986    0.429678
     13          8           0        1.515866   -0.917854   -0.150927
     14          1           0        0.948082    1.461447   -1.210085
 ---------------------------------------------------------------------
 Rotational constants (GHZ):      6.8161115      3.0716711      2.3202684
 Standard basis: 6-31++G(d,p) (6D, 7F)
 The following finite field(s) will be applied:
 An electric field of              0.0000  0.0000  0.0025
 There are   149 symmetry adapted basis functions of A   symmetry.
 Integral buffers will be    131072 words long.
 Raffenetti 2 integral format.
 Two-electron integral symmetry is turned on.
   149 basis functions,   232 primitive gaussians,   149 cartesian basis functions
    21 alpha electrons       21 beta electrons
       nuclear repulsion energy       194.5322515180 Hartrees.
 NAtoms=   14 NActive=   14 NUniq=   14 SFac= 1.00D+00 NAtFMM=   50 NAOKFM=F Big=F
 One-electron integrals computed using PRISM.
 PrsmSu:  requested number of processors reduced to:  10 ShMem   1 Linda.
 NBasis=   149 RedAO= T  NBF=   149
 NBsUse=   149 1.00D-06 NBFU=   149
 The nuclear repulsion energy is now       194.5322515180 hartrees.
 Initial guess read from the read-write file.
 B after Tr=     0.000000    0.000000    0.000000
         Rot=    1.000000    0.000000    0.000000    0.000000 Ang=   0.00 deg.
 Initial guess orbital symmetries:
       Occupied  (A) (A) (A) (A) (A) (A) (A) (A) (A) (A) (A) (A)
                 (A) (A) (A) (A) (A) (A) (A) (A) (A)
       Virtual   (A) (A) (A) (A) (A) (A) (A) (A) (A) (A) (A) (A)
                 (A) (A) (A) (A) (A) (A) (A) (A) (A) (A) (A) (A)
                 (A) (A) (A) (A) (A) (A) (A) (A) (A) (A) (A) (A)
                 (A) (A) (A) (A) (A) (A) (A) (A) (A) (A) (A) (A)
                 (A) (A) (A) (A) (A) (A) (A) (A) (A) (A) (A) (A)
                 (A) (A) (A) (A) (A) (A) (A) (A) (A) (A) (A) (A)
                 (A) (A) (A) (A) (A) (A) (A) (A) (A) (A) (A) (A)
                 (A) (A) (A) (A) (A) (A) (A) (A) (A) (A) (A) (A)
                 (A) (A) (A) (A) (A) (A) (A) (A) (A) (A) (A) (A)
                 (A) (A) (A) (A) (A) (A) (A) (A) (A) (A) (A) (A)
                 (A) (A) (A) (A) (A) (A) (A) (A)
 Requested convergence on RMS density matrix=1.00D-08 within 128 cycles.
 Requested convergence on MAX density matrix=1.00D-06.
 Requested convergence on             energy=1.00D-06.
 No special actions if energy rises.
 SCF Done:  E(RB3LYP) =  -269.886682813     A.U. after   14 cycles
             Convg  =    0.4151D-08             -V/T =  2.0095
 PrsmSu:  requested number of processors reduced to:  10 ShMem   1 Linda.
 PrsmSu:  requested number of processors reduced to:  23 ShMem   1 Linda.
 Calling FoFJK, ICntrl=      2127 FMM=F ISym2X=0 I1Cent= 0 IOpClX= 0 NMat=1 NMatS=1 NMatT=0.
 CoulSu:  requested number of processors reduced to:  16 ShMem   1 Linda.
 ***** Axes restored to original set *****
 -------------------------------------------------------------------
 Center     Atomic                   Forces (Hartrees/Bohr)
 Number     Number              X              Y              Z
 -------------------------------------------------------------------
      1        6           0.000172117   -0.000496791    0.000120485
      2        8          -0.000206694   -0.002066822    0.000408291
      3        1          -0.000107507    0.000317836    0.000078053
      4        1           0.000003824    0.000259643   -0.000216300
      5        1          -0.000134974   -0.000089013   -0.000058484
      6        1          -0.000185698    0.001015474   -0.000030002
      7        1          -0.000142659    0.000464436   -0.000078248
      8        1           0.000187332    0.001272961   -0.000309785
      9        1          -0.000102996    0.001366463   -0.000120416
     10        1          -0.000083049    0.000423456   -0.000062835
     11        6          -0.000075723    0.000054713   -0.000012301
     12        6          -0.000218280    0.000997269   -0.000458328
     13        8           0.000406153   -0.000907741    0.000301367
     14        1           0.000232798   -0.000152631    0.000068543
 -------------------------------------------------------------------
 Cartesian Forces:  Max     0.002066822 RMS     0.000547731
 -----------------------------------------------------------------------------------------------
                       Internal Coordinate Forces (Hartree/Bohr or radian)
  Cent   Atom   N1       Length/X         N2         Alpha/Y        N3         Beta/Z          J
 -----------------------------------------------------------------------------------------------
      1  C 
      2  O        1  -0.000022(     1)
      3  H        1  -0.000077(     2)      2  -0.000615(    14)
      4  H        1   0.000027(     3)      2   0.001410(    15)      3  -0.001659(    26)     0
      5  H        1  -0.000009(     4)      2   0.000245(    16)      3   0.000656(    27)     0
      6  H        1  -0.000448(     5)      2   0.004177(    17)      3  -0.000318(    28)     0
      7  H        1  -0.000136(     6)      2   0.000165(    18)      3   0.001777(    29)     0
      8  H        2  -0.001081(     7)      1   0.000462(    19)      7  -0.001152(    30)     0
      9  H        2   0.001127(     8)      1  -0.001444(    20)      7   0.000329(    31)     0
     10  H        1   0.000431(     9)      2   0.000105(    21)      9  -0.000090(    32)     0
     11  C        1   0.000150(    10)      2  -0.000525(    22)      9  -0.000178(    33)     0
     12  C        1   0.000167(    11)      2  -0.001033(    23)     11  -0.001195(    34)     0
     13  O       12  -0.000627(    12)      1   0.001513(    24)      2  -0.001726(    35)     0
     14  H       11  -0.000183(    13)      1   0.000447(    25)     12   0.000087(    36)     0
 -----------------------------------------------------------------------------------------------
 Internal  Forces:  Max     0.004177179 RMS     0.001076318

 GradGradGradGradGradGradGradGradGradGradGradGradGradGradGradGradGradGrad
 Berny optimization.
 Search for a saddle point.
 Step number   3 out of a maximum of  100
 All quantities printed in internal units (Hartrees-Bohrs-Radians)
 Swaping is turned off.
 Update second derivatives using D2CorN and points    2    3
 ITU=  0  0  0
     Eigenvalues ---   -0.06494  -0.01686   0.00752   0.01102   0.01527
     Eigenvalues ---    0.02863   0.03247   0.03828   0.05493   0.07054
     Eigenvalues ---    0.08596   0.11848   0.14038   0.15798   0.18018
     Eigenvalues ---    0.21249   0.25361   0.30291   0.33684   0.34146
     Eigenvalues ---    0.35887   0.37803   0.38182   0.46245   0.52490
     Eigenvalues ---    0.53028   0.55334   0.58826   0.88555   1.68073
     Eigenvalues ---    3.58575   4.49050   5.60860   7.78857  19.09028
     Eigenvalues ---   30.25367
 Eigenvectors required to have negative eigenvalues:
                          D6        D7        D8        A7        A4
   1                    0.56414   0.43733   0.36723  -0.36378   0.22712
                          D10       A3        B1        A10       D1
   1                    0.15987   0.15499  -0.14810   0.12925  -0.12614
 RFO step:  Lambda0=5.950725940D-05 Lambda=-1.68579417D-02.
 Linear search not attempted -- option 19 set.
 Maximum step size (   0.020) exceeded in Quadratic search.
    -- Step size scaled by   0.324
 Variable       Old X    -DE/DX   Delta X   Delta X   Delta X     New X
                                 (Linear)    (Quad)   (Total)
    B1        3.95118  -0.00002   0.00000   0.01315   0.01315   3.96433
    B2        5.68326  -0.00008   0.00000   0.00117   0.00117   5.68443
    B3        6.54600   0.00003   0.00000  -0.00013  -0.00013   6.54587
    B4        4.09756  -0.00001   0.00000  -0.00005  -0.00005   4.09751
    B5        4.54828  -0.00045   0.00000  -0.00764  -0.00764   4.54065
    B6        2.04743  -0.00014   0.00000  -0.00015  -0.00015   2.04728
    B7        1.83400  -0.00108   0.00000  -0.00039  -0.00039   1.83360
    B8        1.83238   0.00113   0.00000   0.00007   0.00007   1.83246
    B9        2.04689   0.00043   0.00000  -0.00002  -0.00002   2.04687
   B10        4.87977   0.00015   0.00000   0.00044   0.00044   4.88021
   B11        2.77912   0.00017   0.00000  -0.00101  -0.00101   2.77812
   B12        2.80188  -0.00063   0.00000   0.00174   0.00174   2.80362
   B13        2.06622  -0.00018   0.00000  -0.00007  -0.00007   2.06616
    A1        1.24749  -0.00061   0.00000  -0.00054  -0.00054   1.24694
    A2        1.77785   0.00141   0.00000  -0.00047  -0.00047   1.77738
    A3        1.67020   0.00024   0.00000   0.00003   0.00003   1.67023
    A4        2.65871   0.00418   0.00000   0.00194   0.00194   2.66065
    A5        1.58631   0.00016   0.00000  -0.00295  -0.00295   1.58337
    A6        2.08223   0.00046   0.00000   0.00403   0.00403   2.08626
    A7        2.09326  -0.00144   0.00000   0.00081   0.00081   2.09408
    A8        1.59768   0.00010   0.00000  -0.00357  -0.00357   1.59411
    A9        1.60802  -0.00053   0.00000  -0.00065  -0.00065   1.60737
   A10        1.82016  -0.00103   0.00000  -0.00180  -0.00180   1.81836
   A11        1.36950   0.00151   0.00000  -0.00570  -0.00570   1.36381
   A12        1.53862   0.00045   0.00000  -0.00010  -0.00010   1.53852
    D1        0.08547  -0.00166   0.00000   0.00001   0.00001   0.08549
    D2        0.89373   0.00066   0.00000   0.00018   0.00018   0.89391
    D3        1.24335  -0.00032   0.00000   0.00193   0.00193   1.24528
    D4        2.55672   0.00178   0.00000   0.00023   0.00023   2.55695
    D5        0.24559  -0.00115   0.00000   0.00065   0.00065   0.24624
    D6       -2.10900   0.00033   0.00000  -0.00502  -0.00502  -2.11402
    D7       -0.04546  -0.00009   0.00000  -0.00465  -0.00465  -0.05011
    D8        1.56782  -0.00018   0.00000  -0.00521  -0.00521   1.56261
    D9        0.48630  -0.00120   0.00000  -0.00021  -0.00021   0.48610
   D10       -3.09690  -0.00173   0.00000   0.00095   0.00095  -3.09595
   D11        2.49507   0.00009   0.00000   0.00226   0.00226   2.49733
         Item               Value     Threshold  Converged?
 Maximum Force            0.004177     0.000450     NO 
 RMS     Force            0.001076     0.000300     NO 
 Maximum Displacement     0.013150     0.001800     NO 
 RMS     Displacement     0.003333     0.001200     NO 
 Predicted change in Energy=-3.988104D-06
 GradGradGradGradGradGradGradGradGradGradGradGradGradGradGradGradGradGrad

 ---------------------------------------------------------------------------------------------------
                            Z-MATRIX (ANGSTROMS AND DEGREES)
   CD    Cent   Atom    N1       Length/X        N2       Alpha/Y        N3        Beta/Z          J
 ---------------------------------------------------------------------------------------------------
      1      1  C 
      2      2  O        1   2.097835(     1)
      3      3  H        1   3.008073(     2)      2   71.445(    14)
      4      4  H        1   3.463926(     3)      2  101.837(    15)      3    4.898(    26)      0
      5      5  H        1   2.168310(     4)      2   95.697(    16)      3   51.217(    27)      0
      6      6  H        1   2.402807(     5)      2  152.444(    17)      3   71.350(    28)      0
      7      7  H        1   1.083376(     6)      2   90.720(    18)      3  146.502(    29)      0
      8      8  H        2   0.970301(     7)      1  119.534(    19)      7   14.109(    30)      0
      9      9  H        2   0.969695(     8)      1  119.982(    20)      7 -121.125(    31)      0
     10     10  H        1   1.083157(     9)      2   91.336(    21)      9   -2.871(    32)      0
     11     11  C        1   2.582497(    10)      2   92.096(    22)      9   89.531(    33)      0
     12     12  C        1   1.470116(    11)      2  104.184(    23)     11   27.851(    34)      0
     13     13  O       12   1.483614(    12)      1   78.140(    24)      2 -177.385(    35)      0
     14     14  H       11   1.093363(    13)      1   88.150(    25)     12  143.087(    36)      0
 ---------------------------------------------------------------------------------------------------
                         Z-Matrix orientation:                         
 ---------------------------------------------------------------------
 Center     Atomic      Atomic             Coordinates (Angstroms)
 Number     Number       Type             X           Y           Z
 ---------------------------------------------------------------------
      1          6           0        0.000000    0.000000    0.000000
      2          8           0        0.000000    0.000000    2.097835
      3          1           0        2.851704    0.000000    0.957230
      4          1           0        3.377890   -0.289471   -0.710527
      5          1           0        1.351460   -1.681901   -0.215250
      6          1           0        0.355472   -1.053194   -2.130235
      7          1           0       -0.903365   -0.597872   -0.013618
      8          1           0       -0.569194   -0.623484    2.576134
      9          1           0       -0.034779    0.839215    2.582414
     10          1           0       -0.098976    1.078329   -0.025246
     11          6           0        2.577596    0.127969   -0.094434
     12          6           0        1.291662   -0.602560   -0.360239
     13          8           0        0.729684   -0.267296   -1.691737
     14          1           0        2.481234    1.194697   -0.314084
 ---------------------------------------------------------------------
                    Distance matrix (angstroms):
                    1          2          3          4          5
     1  C    0.000000
     2  O    2.097835   0.000000
     3  H    3.008073   3.071351   0.000000
     4  H    3.463926   4.402366   1.772590   0.000000
     5  H    2.168310   3.163162   2.540518   2.508103   0.000000
     6  H    2.402807   4.371745   4.107656   3.425472   2.248207
     7  H    1.083376   2.373131   3.924352   4.348555   2.509982
     8  H    2.710937   0.970301   3.835639   5.147152   3.549786
     9  H    2.715576   0.969695   3.417205   4.874802   4.013054
    10  H    1.083157   2.383289   3.291590   3.798563   3.123898
    11  C    2.582497   3.386210   1.094308   1.092839   2.189437
    12  C    1.470116   2.841407   2.128974   2.138474   1.090676
    13  O    1.861682   3.868429   3.404621   2.824227   2.137224
    14  H    2.771727   3.660761   1.783477   1.778740   3.092083
                    6          7          8          9         10
     6  H    0.000000
     7  H    2.504408   0.000000
     8  H    4.815555   2.611348   0.000000
     9  H    5.093385   3.091769   1.557281   0.000000
    10  H    3.029999   1.859254   3.143955   2.619387   0.000000
    11  C    3.236891   3.556748   4.195104   3.807347   2.841128
    12  C    2.052416   2.222231   3.476422   3.535161   2.207144
    13  O    0.974654   2.364786   4.475341   4.480752   2.296645
    14  H    3.587518   3.841756   4.578673   3.853101   2.598933
                   11         12         13         14
    11  C    0.000000
    12  C    1.502647   0.000000
    13  O    2.474346   1.483614   0.000000
    14  H    1.093363   2.155770   2.665198   0.000000
[...]
      1  C 
      2  O        1   0.000001(     1)
      3  H        1  -0.000023(     2)      2  -0.000139(    14)
      4  H        1   0.000020(     3)      2   0.000104(    15)      3  -0.000010(    26)     0
      5  H        1  -0.000002(     4)      2  -0.000027(    16)      3   0.000060(    27)     0
      6  H        1  -0.000011(     5)      2   0.000150(    17)      3   0.000040(    28)     0
      7  H        1  -0.000008(     6)      2  -0.000005(    18)      3   0.000030(    29)     0
      8  H        2  -0.000044(     7)      1  -0.000055(    19)      7  -0.000053(    30)     0
      9  H        2   0.000062(     8)      1  -0.000047(    20)      7   0.000174(    31)     0
     10  H        1   0.000023(     9)      2   0.000038(    21)      9   0.000056(    32)     0
     11  C        1  -0.000007(    10)      2   0.000031(    22)      9  -0.000022(    33)     0
     12  C        1   0.000008(    11)      2  -0.000089(    23)     11  -0.000078(    34)     0
     13  O       12  -0.000034(    12)      1   0.000077(    24)      2  -0.000099(    35)     0
     14  H       11  -0.000009(    13)      1   0.000025(    25)     12  -0.000024(    36)     0
 -----------------------------------------------------------------------------------------------
 Internal  Forces:  Max     0.000174127 RMS     0.000063119

 GradGradGradGradGradGradGradGradGradGradGradGradGradGradGradGradGradGrad
 Berny optimization.
 Search for a saddle point.
 Step number   1 out of a maximum of    2
 All quantities printed in internal units (Hartrees-Bohrs-Radians)
 Swaping is turned off.
 Second derivative matrix not updated -- analytic derivatives used.
 ITU=  0
     Eigenvalues ---   -0.01954   0.00072   0.00705   0.01008   0.01452
     Eigenvalues ---    0.02159   0.02940   0.03225   0.03900   0.06199
     Eigenvalues ---    0.07120   0.10747   0.12962   0.15264   0.16761
     Eigenvalues ---    0.21041   0.24403   0.29569   0.34011   0.34239
     Eigenvalues ---    0.35618   0.37750   0.38280   0.45918   0.51097
     Eigenvalues ---    0.52525   0.52604   0.59199   0.88250   1.66117
     Eigenvalues ---    3.61202   4.44866   5.77176   7.80561  18.98923
     Eigenvalues ---   29.45347
 Eigenvectors required to have negative eigenvalues:
                          B1        B5        A11       A8        A5
   1                    0.74413  -0.39174  -0.33297  -0.21007  -0.16488
                          D11       D5        A10       B12       A6
   1                    0.13382   0.11838  -0.11505   0.11282   0.11262
 Angle between quadratic step and forces=  75.70 degrees.
 Linear search not attempted -- option 19 set.
 Maximum step size (   0.020) exceeded in Quadratic search.
    -- Step size scaled by   0.181
 Variable       Old X    -DE/DX   Delta X   Delta X   Delta X     New X
                                 (Linear)    (Quad)   (Total)
    B1        4.00163   0.00000   0.00000   0.00020   0.00020   4.00183
    B2        5.74695  -0.00002   0.00000  -0.00175  -0.00175   5.74521
    B3        6.53579   0.00002   0.00000   0.00022   0.00022   6.53601
    B4        4.09382   0.00000   0.00000   0.00002   0.00002   4.09384
    B5        4.51209  -0.00001   0.00000  -0.00021  -0.00021   4.51188
    B6        2.04699  -0.00001   0.00000   0.00000   0.00000   2.04699
    B7        1.83356  -0.00004   0.00000  -0.00002  -0.00002   1.83354
    B8        1.83397   0.00006   0.00000   0.00005   0.00005   1.83402
    B9        2.04686   0.00002   0.00000   0.00003   0.00003   2.04688
   B10        4.88852  -0.00001   0.00000  -0.00033  -0.00033   4.88819
   B11        2.77637   0.00001   0.00000  -0.00006  -0.00006   2.77631
   B12        2.80417  -0.00003   0.00000   0.00002   0.00002   2.80420
   B13        2.06581  -0.00001   0.00000   0.00000   0.00000   2.06581
    A1        1.27609  -0.00014   0.00000  -0.00069  -0.00069   1.27540
    A2        1.80972   0.00010   0.00000  -0.00074  -0.00074   1.80898
    A3        1.68527  -0.00003   0.00000  -0.00030  -0.00030   1.68498
    A4        2.67704   0.00015   0.00000  -0.00011  -0.00011   2.67693
    A5        1.55722  -0.00001   0.00000   0.00046   0.00046   1.55768
    A6        2.06419  -0.00006   0.00000  -0.00025  -0.00025   2.06395
    A7        2.03849  -0.00005   0.00000  -0.00062  -0.00062   2.03787
    A8        1.59241   0.00004   0.00000   0.00000   0.00000   1.59242
    A9        1.62690   0.00003   0.00000  -0.00042  -0.00042   1.62649
   A10        1.83428  -0.00009   0.00000  -0.00037  -0.00037   1.83391
   A11        1.35269   0.00008   0.00000   0.00004   0.00004   1.35273
   A12        1.53067   0.00003   0.00000   0.00022   0.00022   1.53089
    D1        0.05831  -0.00001   0.00000   0.00069   0.00069   0.05900
    D2        0.87743   0.00006   0.00000   0.00048   0.00048   0.87791
    D3        1.27047   0.00004   0.00000   0.00005   0.00005   1.27053
    D4        2.52886   0.00003   0.00000   0.00088   0.00088   2.52974
    D5       -0.45087  -0.00005   0.00000   0.00915   0.00915  -0.44172
    D6       -2.69921   0.00017   0.00000   0.01034   0.01034  -2.68887
    D7       -0.63246   0.00006   0.00000   0.01015   0.01015  -0.62231
    D8        0.98789  -0.00002   0.00000   0.00990   0.00990   0.99779
    D9        0.48549  -0.00008   0.00000   0.00005   0.00005   0.48554
   D10       -3.09722  -0.00010   0.00000   0.00010   0.00010  -3.09712
   D11        2.54782  -0.00002   0.00000  -0.00126  -0.00126   2.54657
         Item               Value     Threshold  Converged?
 Maximum Force            0.000174     0.000450     YES
 RMS     Force            0.000063     0.000300     YES
 Maximum Displacement     0.010337     0.001800     NO 
 RMS     Displacement     0.003333     0.001200     NO 
 Predicted change in Energy=-1.700733D-06
 GradGradGradGradGradGradGradGradGradGradGradGradGradGradGradGradGradGrad

 1\1\GINC-C14N07\Freq\RB3LYP\6-31++G(d,p)\C3H9O2(1+)\ROOT\27-Apr-2018\1
 \\#N Geom=AllCheck Guess=TCheck SCRF=Check GenChk RB3LYP/6-31++G(d,p) 
 Freq\\change step tp 2 and use calcfc\\1,1\C\O,1,B1\H,1,B2,2,A1\H,1,B3
 ,2,A2,3,D1,0\H,1,B4,2,A3,3,D2,0\H,1,B5,2,A4,3,D3,0\H,1,B6,2,A5,3,D4,0\
 H,2,B7,1,A6,7,D5,0\H,2,B8,1,A7,7,D6,0\H,1,B9,2,A8,9,D7,0\C,1,B10,2,A9,
 9,D8,0\C,1,B11,2,A10,11,D9,0\O,12,B12,1,A11,2,D10,0\H,11,B13,1,A12,12,
 D11,0\\B1=2.11757164\B2=3.04115647\B3=3.45859302\B4=2.16635369\B5=2.38
 769753\B6=1.08321946\B7=0.97027871\B8=0.97049669\B9=1.08314987\B10=2.5
 8689307\B11=1.46919176\B12=1.48390494\B13=1.09317716\A1=73.11458138\A2
 =103.68953797\A3=96.5591162\A4=153.38291729\A5=89.22225056\A6=118.2696
 1512\A7=116.79671887\A8=91.23853572\A9=93.21473472\A10=105.09652043\A1
 1=77.50353169\A12=87.70105283\D1=3.34072009\D2=50.27298175\D3=72.79283
 296\D4=144.89306074\D5=-25.8329073\D6=-154.65338727\D7=-36.23709166\D8
 =56.60207084\D9=27.81643541\D10=-177.45772318\D11=145.97959952\\Versio
 n=EM64L-G09RevB.01\State=1-A\HF=-269.8869968\RMSD=1.029e-09\RMSF=2.835
 e-04\ZeroPoint=0.1218302\Thermal=0.1290921\Dipole=-1.0193703,-0.127849
 6,0.6657719\DipoleDeriv=0.2100507,-0.0185419,-0.1940865,-0.0536767,0.2
 113141,0.1651845,-0.4698008,0.2131343,1.9428254,-0.4970552,0.0177453,0
 .0614946,0.0258269,-0.4790699,-0.0254621,0.1188471,-0.0058872,-1.07157
 2,0.0823153,-0.0141236,0.0033964,-0.0279187,0.0848386,0.0388684,-0.026
 2308,0.0287897,-0.021934,0.0390393,0.0065108,0.017639,0.006716,0.06257
 34,-0.0582392,0.0593907,-0.0404502,0.0503645,0.0272934,-0.0279763,-0.0
 14568,-0.01277,-0.0273781,0.0118205,-0.0342638,-0.012909,0.0509148,0.2
 719448,-0.0011011,0.1116406,-0.0213379,0.2701774,0.1264346,0.0131252,0
 .0503604,0.36868,0.0667399,-0.0047506,0.0168941,-0.0101,0.0829581,-0.0
 102283,0.0245813,-0.0195356,0.0070609,0.3421871,-0.0069306,-0.0857819,
 0.014287,0.3503053,-0.0733814,0.0138442,-0.0452489,0.2529891,0.3289567
 ,-0.0043028,0.0667516,-0.0239066,0.3170665,0.0613778,0.0334932,-0.0113
 349,0.265007,0.0972222,-0.0314513,0.016973,-0.0073454,0.115805,-0.0157
 032,0.0252192,-0.0042779,0.0100957,-0.0982743,-0.035854,-0.0479431,-0.
 0237333,0.007647,-0.024366,-0.0150459,-0.0089191,0.0228232,0.6320345,0
 .0044692,-0.0413124,0.0234106,0.2720747,0.0871935,0.3272123,-0.0224411
 ,0.3767522,-0.5463977,0.0551393,0.1072377,0.0945944,-0.2513945,-0.2906
 829,-0.0638809,-0.1390286,-1.3496702,0.0439434,0.0611677,-0.018335,0.0
 159536,-0.0169176,0.0071838,-0.006491,0.0177482,0.0956633\Polar=46.623
 8833,0.3887762,38.7813109,-3.8332274,3.5614393,56.9401097\PG=C01 [X(C3
 H9O2)]\NImag=1\\0.63671277,0.04219150,0.69332693,-0.04081398,0.0098824
 5,0.02916383,-0.02081552,-0.00507080,-0.00603253,0.52719224,-0.0072464
 4,-0.01595116,0.00659675,0.24370296,0.35745128,-0.00586882,0.00874327,
 0.02234871,-0.12025991,0.16083111,0.30107084,0.00124971,0.00076552,-0.
 00224742,0.00041121,0.00021210,0.00053664,0.07579131,0.00060012,0.0004
 4350,-0.00037763,-0.00016347,-0.00018380,0.00022645,-0.01180086,0.0538
 9659,-0.00053442,-0.00027976,-0.00043502,0.00035795,0.00008500,-0.0000
 3667,0.08508949,-0.04377851,0.30720095,-0.00331501,-0.00461068,0.00050
 030,0.00021142,0.00008240,0.00000780,0.00896054,-0.00412555,-0.0068087
 2,0.19969164,-0.00253070,-0.00223372,-0.00104533,0.00010615,0.00013115
 ,0.00009424,-0.00417710,0.00087940,0.00350774,-0.06949499,0.08338385,-
 0.00261276,-0.00106108,0.00024490,0.00031237,0.00009870,-0.00001276,0.
 02187473,-0.01041987,-0.01712020,-0.13054345,0.06443500,0.15963796,-0.
 00273559,0.02843912,-0.00254905,-0.00000747,-0.00032213,0.00038746,0.0
 0083787,0.00068598,-0.00026524,0.00093558,0.00059678,0.00045425,0.0615
 5770,0.00011760,-0.00896839,0.00104309,0.00001040,0.00031743,-0.000230
 08,-0.00011065,0.00028024,-0.00024230,-0.00006103,0.00069670,0.0002053
 3,-0.02054814,0.34358381,-0.00012096,-0.01996488,-0.00046837,-0.000095
 19,0.00054846,0.00054954,0.00041972,0.00033127,0.00049887,-0.00043072,
 0.00049882,0.00017129,0.00712984,-0.03401110,0.05669647,0.00784635,0.0
 0857298,-0.00567717,-0.00103476,-0.00041814,0.00291714,-0.00148432,-0.
 00059480,-0.00010573,-0.00003395,0.00000307,0.00002605,0.00153701,0.00
 054524,0.00064190,0.09083967,0.00206272,-0.00402890,-0.00278236,-0.000
 31587,0.00020332,0.00163364,0.00067416,0.00064236,0.00026333,0.0001046
 2,0.00010528,-0.00014238,0.00126952,0.00104303,0.00147227,0.14851149,0
 .33847872,-0.00758442,-0.00523733,-0.00676196,0.00104923,0.00060667,0.
 00010418,-0.00051438,-0.00053158,0.00040210,0.00025690,0.00002835,0.00
 027731,-0.00065374,0.00080076,0.00263633,0.09130255,0.16513395,0.13354
 831,-0.25862725,-0.14721321,0.00965933,0.00154385,0.00148955,0.0010360
 9,0.00006103,0.00002669,-0.00007942,-0.00099579,-0.00074436,-0.0006101
 6,0.00106263,-0.00000517,-0.00045170,-0.00026928,0.00006984,0.00136221
 ,0.26386745,-0.14955517,-0.16503793,-0.00042066,0.00138933,0.00045967,
 0.00096895,-0.00021334,-0.00000944,0.00004694,0.00068377,0.00064279,0.
 00008845,-0.00021732,0.00082046,0.00103930,-0.00001383,0.00105752,-0.0
 0032167,0.15279796,0.15965725,-0.00313791,0.00257050,-0.03157741,-0.00
 599661,-0.00608549,-0.00952203,-0.00004956,0.00000926,0.00002801,-0.00
 020335,0.00017755,0.00019567,0.00034375,0.00010285,0.00006446,0.000136
 30,0.00051994,0.00082279,-0.00916401,0.00086305,0.04217375,0.00160143,
 0.00236405,0.01009959,-0.38859426,-0.08742812,0.18178691,0.00001998,0.
 00001268,0.00006185,0.00002452,-0.00000670,-0.00000565,0.00006125,0.00
 000775,0.00005415,0.00047161,0.00017301,-0.00006372,0.00045396,-0.0002
 1115,-0.00064974,0.40194845,0.00139612,-0.00121162,0.00346341,-0.04934
 855,-0.03630816,-0.00145404,-0.00012059,0.00001090,-0.00001730,0.00000
 416,0.00003327,-0.00005413,0.00012035,-0.00001266,-0.00006614,0.000115
 15,0.00019837,-0.00002931,-0.00009251,0.00050666,-0.00090541,0.0822895
 3,0.04141009,0.00667683,0.00104517,0.00650359,0.21381130,0.02393690,-0
 .14312178,0.00015613,-0.00002742,-0.00003039,-0.00002120,-0.00001043,0
 .00002503,0.00006677,-0.00006101,0.00006832,0.00049805,0.00012291,-0.0
 0040053,-0.00026590,-0.00070015,-0.00102877,-0.19897265,-0.01787455,0.
 13400259,0.00018245,0.00015688,-0.00693160,-0.12446906,-0.15101867,-0.
 05812749,-0.00069244,0.00039903,0.00001336,-0.00023019,-0.00015468,-0.
 00029550,-0.00007725,-0.00005300,-0.00009966,-0.00025603,-0.00010770,-
 0.00005908,-0.00013883,0.00007351,0.00032674,-0.01562233,-0.03337319,-
 0.01989544,0.13969325,0.00303114,0.00119000,-0.00755224,-0.18954732,-0
 .31036939,-0.16421346,0.00022680,0.00013885,-0.00002437,-0.00000701,-0
 .00015785,0.00008668,-0.00008033,-0.00006731,-0.00010114,-0.00015166,-
 0.00015166,-0.00011366,-0.00006002,-0.00023606,0.00137345,0.00372775,-
 0.00468045,-0.00634133,0.18350818,0.31356364,-0.00328785,-0.00617887,0
 .00611440,-0.09239629,-0.18614564,-0.13372500,0.00047965,-0.00018975,0
 .00020089,0.00008766,0.00017671,0.00015749,-0.00002445,0.00006928,0.00
 023176,-0.00001784,0.00008240,0.00011273,0.00054921,0.00052119,-0.0021
 8095,0.01332854,0.01767735,0.00956519,0.08129677,0.17328729,0.12446151
 ,-0.06012568,0.03015675,0.00483032,-0.00059458,-0.00006667,-0.00006740
 ,-0.00020633,-0.00011922,-0.00003978,0.00024321,-0.00041531,0.00008420
 ,-0.00338113,0.00088930,0.00309397,0.00015452,-0.00011339,-0.00028733,
 0.00702311,-0.02198863,0.00004677,0.00016892,-0.00050193,0.00024973,0.
 00028884,0.00019672,-0.00057511,0.05544014,0.03150568,-0.36530071,0.00
 383056,-0.00007988,0.00233305,-0.00304664,-0.00001932,0.00004018,-0.00
 004960,-0.00012720,0.00003458,0.00001227,0.00055874,0.00093701,-0.0006
 6403,-0.00052069,0.00011631,0.00020634,0.00476267,-0.00713788,0.000479
 17,-0.00029268,0.00003594,-0.00007315,0.00022904,0.00046319,0.00052191
 ,-0.03564383,0.37069737,-0.00689405,0.01244309,-0.02696548,0.00139484,
 0.00486497,-0.01118565,0.00013222,0.00018967,-0.00001062,-0.00005133,-
 0.00007070,-0.00007468,-0.00044890,0.00009409,0.00025870,0.00264644,-0
 .00048525,-0.00076635,-0.00017418,0.00005134,0.00643504,-0.00134247,0.
 00073468,-0.00132931,-0.00004567,0.00122588,-0.00099714,-0.00424266,-0
 .00443195,0.04111802,-0.02700599,-0.01228977,-0.00179865,-0.00014436,-
 0.00009903,0.00007356,-0.07106793,0.01105381,-0.07742074,-0.18311485,0
 .06683708,0.12269041,0.00425783,0.00082573,0.00108700,-0.00091106,0.00
 026734,-0.00011319,-0.00154884,0.00151640,-0.00042238,-0.00004773,0.00
 004000,-0.00023228,0.00038290,-0.00018606,-0.00024792,0.00203566,-0.00
 076920,0.00048301,0.51659810,0.00978843,0.01015222,0.00206942,0.000276
 91,-0.00002265,-0.00023183,0.01095254,-0.05455411,0.04072229,0.0655963
 8,-0.08213390,-0.05891299,-0.02812484,-0.01220969,-0.00670487,0.001516
 39,-0.00095109,0.00132135,0.00313176,-0.00134144,0.00007511,-0.0000140
 0,-0.00006204,0.00004525,-0.00025420,0.00026517,-0.00004104,0.00094114
 ,0.00121153,-0.00042307,-0.03901413,0.57602876,0.01607583,0.01371879,-
 0.00079279,-0.00067323,-0.00002541,0.00077065,-0.07608257,0.04232881,-
 0.28452331,0.11956051,-0.06058274,-0.15102821,0.00361766,0.00110036,0.
 00342624,-0.00593316,0.00202490,-0.00344045,0.00329938,-0.00203260,0.0
 0020972,0.00000163,0.00004764,0.00033407,0.00023310,-0.00021773,0.0001
 8095,-0.00122244,-0.00019981,0.00019180,-0.01635144,-0.01130525,0.5738
 4242,-0.25804210,0.07599686,0.07865722,0.00350386,-0.00216040,-0.01008
 306,-0.00663256,-0.00124551,-0.00092484,-0.02409642,-0.01372555,-0.007
 72714,-0.05503927,0.02005735,0.00127250,-0.00934653,0.00652479,-0.0063
 5333,-0.01593012,0.01354089,0.00280750,-0.00150962,-0.00082176,-0.0021
 5738,0.00245141,0.00082016,-0.00130371,0.00030800,0.00057371,0.0041377
 0,-0.17646109,-0.06510779,0.00132048,0.58021145,0.07932854,-0.12832260
 ,-0.03023130,-0.00339974,-0.00061746,0.00324743,0.00718148,0.00186462,
 0.00070726,0.01080989,0.00659328,0.00302446,0.01243745,-0.32901377,0.0
 2260275,-0.01650606,0.01089241,-0.02287292,-0.01604825,0.01123157,-0.0
 0420544,0.00059257,0.00037634,0.00093795,0.00027600,-0.00038822,-0.000
 40366,0.02846482,-0.00600814,0.00115653,-0.05865704,-0.13292663,-0.006
 37279,-0.02617947,0.67244807,0.03591959,-0.01551194,0.02090331,0.00213
 597,-0.00201590,-0.01134528,-0.02589034,-0.01544264,-0.00577955,0.0172
 4263,0.01366066,0.00278922,-0.00160934,0.03123553,-0.05160147,0.002756
 69,0.01207878,-0.01460750,-0.00217330,-0.00096054,-0.00245830,-0.00097
 341,-0.00032678,-0.00147022,0.00152545,0.00014727,-0.00208678,-0.00015
 904,0.00155365,-0.00124421,-0.01089776,-0.01134002,-0.07118262,-0.0012
 1703,-0.00841519,0.28731933,-0.01891348,-0.01790676,-0.03774045,0.0027
 3800,0.00315954,0.00765733,-0.00527057,-0.00459325,0.00052959,0.003436
 60,0.00174995,0.00168828,-0.00418256,0.00065483,-0.01087615,-0.0878279
 3,-0.15916305,-0.07854703,0.00329886,0.00199564,0.01585544,0.00104043,
 0.00028830,0.00006549,-0.00145777,-0.00145667,0.00193007,-0.00082004,-
 0.00073935,0.00444766,-0.00859815,0.00387103,-0.03788921,-0.04146202,0
 .01471750,-0.02213599,0.15654428,-0.01164618,-0.01489906,0.01554804,0.
 00237496,0.00241931,-0.00645445,-0.00409168,-0.00153227,-0.00080024,0.
 00047693,0.00053247,0.00056264,0.00745875,0.00212940,0.03538821,-0.141
 34770,-0.34782652,-0.13893043,0.00188823,-0.00087155,0.00491809,-0.001
 17844,-0.00029016,-0.00101190,0.00042193,0.00047181,0.00042375,-0.0009
 7716,0.00227370,-0.01530583,-0.00243421,0.00672106,-0.01843253,-0.0097
 7528,-0.08958318,-0.00706104,0.15719449,0.43952629,0.01230205,-0.00089
 752,-0.01960860,0.00644265,-0.00311438,-0.01571672,-0.00129387,-0.0020
 6094,0.00178837,-0.00075388,-0.00072238,0.00116955,-0.00518523,0.00051
 394,-0.01340073,-0.08941760,-0.17999940,-0.11191517,-0.00296694,0.0009
 5804,-0.00310273,-0.00333675,-0.00115961,-0.00305891,0.00180576,0.0021
 8778,-0.00169493,-0.00195982,0.00168561,-0.00556431,-0.01235093,0.0030
 9622,-0.01452032,-0.05807277,0.04775490,-0.14726967,0.15388310,0.13188
 512,0.33253670,0.00198790,-0.00155244,0.00004408,0.00005943,0.00011305
 ,0.00000376,-0.00197749,0.00986435,0.00012664,-0.00171731,0.02195637,-
 0.00533563,-0.00482660,-0.00233019,-0.00162469,0.00031469,0.00004251,0
 .00020533,0.00019923,0.00020195,0.00010707,-0.00001661,0.00000493,0.00
 002055,-0.00005495,-0.00002168,0.00018128,-0.00053466,0.00056230,-0.00
 004261,-0.05437449,0.03644038,-0.00595654,0.00204502,-0.03301767,0.005
 47588,0.00147434,0.00163535,0.00090424,0.05742150,0.00095662,0.0008414
 4,-0.00002419,0.00006492,0.00013741,-0.00011460,0.00052095,-0.00191703
 ,-0.00014047,0.00066832,-0.00850730,0.00207693,-0.00227392,0.00046376,
 -0.00036890,0.00028857,0.00022086,-0.00006052,-0.00000319,0.00025838,0
 .00010737,-0.00003625,-0.00000648,0.00001178,-0.00010312,-0.00004172,0
 .00019907,-0.00082258,0.00030386,-0.00004344,0.03290908,-0.31017719,0.
 03994835,0.00150201,-0.01654629,0.00239815,0.00022780,0.00092871,-0.00
 012739,-0.03389921,0.33404159,-0.00011914,0.00072810,0.00133088,-0.000
 05054,-0.00018173,-0.00017803,-0.00261044,0.02974290,-0.00218343,0.001
 15687,-0.02014749,0.00356743,-0.00126378,-0.00062075,0.00086859,0.0002
 2638,0.00007725,-0.00001178,-0.00002062,-0.00010163,-0.00005926,0.0000
 1174,-0.00003582,-0.00005888,0.00025327,0.00025560,-0.00034013,0.00024
 859,0.00017566,0.00013419,-0.00449869,0.04162944,-0.05346813,-0.000356
 15,-0.00692997,-0.00196625,0.00113187,-0.00072943,0.00035748,0.0058906
 4,-0.04386214,0.05200732\\0.00023398,-0.00174023,0.00034771,-0.0000653
 3,-0.00011581,-0.00004365,0.00002904,-0.00032606,-0.00001638,-0.000015
 76,-0.00000072,0.00002022,0.00001190,0.00000865,-0.00000683,0.00002902
 ,-0.00002707,0.00000522,0.00003630,-0.00006514,-0.00000240,-0.00001935
 ,-0.00003623,0.00004753,0.00007787,-0.00012088,-0.00000503,-0.00002450
 ,-0.00002612,0.00001915,0.00001907,0.00000090,-0.00001205,0.00000877,-
 0.00006557,0.00003024,-0.00002093,0.00005028,-0.00001594,-0.00001274,0
 .00000965,0.00001107\\\@


      SCIENCE SANS CONSCIENCE N'EST QUE RUINE DE L'AME.

                                                  -- RABELAIS
 Job cpu time:  0 days  0 hours  9 minutes 55.3 seconds.
 File lengths (MBytes):  RWF=   1312 Int=      0 D2E=      0 Chk=     32 Scr=     32
 Normal termination of Gaussian 09 at Fri Apr 27 22:35:01 2018.
