 Entering Gaussian System, Link 0=g09
 Input=H3O-mid-field-2.gjf
 Output=H3O-mid-field-2.log
 Initial command:
 /share/home/zxchen/g09/l1.exe /scratch/zxchen/Gau-22481.inp -scrdir=/scratch/zxchen/
 Entering Link 1 = /share/home/zxchen/g09/l1.exe PID=     22482.
  
 Copyright (c) 1988,1990,1992,1993,1995,1998,2003,2009,2010,
            Gaussian, Inc.  All Rights Reserved.
  
 This is part of the Gaussian(R) 09 program.  It is based on
 the Gaussian(R) 03 system (copyright 2003, Gaussian, Inc.),
 the Gaussian(R) 98 system (copyright 1998, Gaussian, Inc.),
 the Gaussian(R) 94 system (copyright 1995, Gaussian, Inc.),
 the Gaussian 92(TM) system (copyright 1992, Gaussian, Inc.),
 the Gaussian 90(TM) system (copyright 1990, Gaussian, Inc.),
 the Gaussian 88(TM) system (copyright 1988, Gaussian, Inc.),
 the Gaussian 86(TM) system (copyright 1986, Carnegie Mellon
 University), and the Gaussian 82(TM) system (copyright 1983,
 Carnegie Mellon University). Gaussian is a federally registered
 trademark of Gaussian, Inc.
  
 This software contains proprietary and confidential information,
 including trade secrets, belonging to Gaussian, Inc.
  
 This software is provided under written license and may be
 used, copied, transmitted, or stored only in accord with that
 written license.
  
 The following legend is applicable only to US Government
 contracts under FAR:
  
                    RESTRICTED RIGHTS LEGEND
  
 Use, reproduction and disclosure by the US Government is
 subject to restrictions as set forth in subparagraphs (a)
 and (c) of the Commercial Computer Software - Restricted
 Rights clause in FAR 52.227-19.
  
 Gaussian, Inc.
 340 Quinnipiac St., Bldg. 40, Wallingford CT 06492
  
  
 ---------------------------------------------------------------
 Warning -- This program may not be used in any manner that
 competes with the business of Gaussian, Inc. or will provide
 assistance to any competitor of Gaussian, Inc.  The licensee
 of this program is prohibited from giving any competitor of
 Gaussian, Inc. access to this program.  By using this program,
 the user acknowledges that Gaussian, Inc. is engaged in the
 business of creating and licensing software in the field of
 computational chemistry and represents and warrants to the
 licensee that it is not a competitor of Gaussian, Inc. and that
 it will not use this program in any manner prohibited above.
 ---------------------------------------------------------------
  

 Cite this work as:
 Gaussian 09, Revision B.01,
 M. J. Frisch, G. W. Trucks, H. B. Schlegel, G. E. Scuseria, 
 M. A. Robb, J. R. Cheeseman, G. Scalmani, V. Barone, B. Mennucci, 
 G. A. Petersson, H. Nakatsuji, M. Caricato, X. Li, H. P. Hratchian, 
 A. F. Izmaylov, J. Bloino, G. Zheng, J. L. Sonnenberg, M. Hada, 
 M. Ehara, K. Toyota, R. Fukuda, J. Hasegawa, M. Ishida, T. Nakajima, 
 Y. Honda, O. Kitao, H. Nakai, T. Vreven, J. A. Montgomery, Jr., 
 J. E. Peralta, F. Ogliaro, M. Bearpark, J. J. Heyd, E. Brothers, 
 K. N. Kudin, V. N. Staroverov, T. Keith, R. Kobayashi, J. Normand, 
 K. Raghavachari, A. Rendell, J. C. Burant, S. S. Iyengar, J. Tomasi, 
 M. Cossi, N. Rega, J. M. Millam, M. Klene, J. E. Knox, J. B. Cross, 
 V. Bakken, C. Adamo, J. Jaramillo, R. Gomperts, R. E. Stratmann, 
 O. Yazyev, A. J. Austin, R. Cammi, C. Pomelli, J. W. Ochterski, 
 R. L. Martin, K. Morokuma, V. G. Zakrzewski, G. A. Voth, 
 P. Salvador, J. J. Dannenberg, S. Dapprich, A. D. Daniels, 
 O. Farkas, J. B. Foresman, J. V. Ortiz, J. Cioslowski, 
 and D. J. Fox, Gaussian, Inc., Wallingford CT, 2010.
 
 ******************************************
 Gaussian 09:  EM64L-G09RevB.01 12-Aug-2010
                 6-Mar-2018 
 ******************************************
 %chk=H3O-mid-field-2.chk
 %nprocshared=24
 Will use up to   24 processors via shared memory.
 ----------------------------------------------------------------------
 # opt=(calcall,ts,z-matrix,noeigen,maxcycle=300) b3lyp/6-31++g(d,p) no
 symm field=z+25 freq
 ----------------------------------------------------------------------
 1/5=1,6=300,10=4,11=1,14=-1,18=40,26=3,38=1/1,3;
 2/12=2,15=1,17=6,18=5,29=3,40=1/2;
 3/5=1,6=6,7=1111,11=2,14=3,15=25,16=1,25=1,30=1,71=2,74=-5/1,2,3;
 4//1;
 5/5=2,38=5/2;
 8/6=4,10=90,11=11/1;
 11/6=1,8=1,9=11,15=111,16=1,31=1/1,2,10;
 10/6=1,31=1/2;
 6/7=2,8=2,9=2,10=2,18=1,28=1/1;
 7/10=1,25=1,30=1/1,2,3,16;
 1/5=1,6=300,10=4,11=1,14=-1,18=40/3(3);
 2/15=1,29=3/2;
 7/8=1,9=1,25=1,30=1,44=-1/16;
 99//99;
 2/15=1,29=3/2;
 3/5=1,6=6,7=1111,11=2,14=3,15=25,16=1,25=1,30=1,71=2,74=-5/1,2,3;
 4/5=5,16=3/1;
 5/5=2,38=5/2;
 8/6=4,10=90,11=11/1;
 11/6=1,8=1,9=11,15=111,16=1,31=1/1,2,10;
 10/6=1,31=1/2;
 7/10=1,25=1,30=1/1,2,3,16;
 1/5=1,6=300,10=4,11=1,14=-1,18=40/3(-8);
 2/15=1,29=3/2;
 6/7=2,8=2,9=2,10=2,18=1,19=2,28=1/1;
 7/8=1,9=1,25=1,30=1,44=-1/16;
 99//99;
 -------------------
 Title Card Required
 -------------------
 Symbolic Z-matrix:
 Charge =  1 Multiplicity = 1
 C                     0.        0.        0. 
 O                     0.        0.        2.34824 
 H                     2.1941    0.        0.19732 
 H                     1.47094  -1.61557  -0.25024 
 H                     0.75411   0.00116   2.95488 
 H                    -0.74194   0.32787   2.87708 
 H                    -0.07123   1.05885   0.22188 
 H                     1.35069   0.79465  -1.78087 
 H                    -1.99411  -0.15655  -0.74828 
 H                    -0.9919   -1.71763  -0.80535 
 H                    -1.60953  -1.07137   0.7957 
 C                     1.34531  -0.53563  -0.22271 
 C                    -1.22919  -0.79087  -0.23383 
 O                     0.94323  -0.05884  -1.55502 
 

 GradGradGradGradGradGradGradGradGradGradGradGradGradGradGradGradGradGrad
 Berny optimization.
 Initialization pass.
 No Z-matrix variables, so optimization will use Cartesian coordinates.
 Trust Radius=3.00D-01 FncErr=1.00D-07 GrdErr=1.00D-06
 Number of steps in this run=    100 maximum allowed number of steps=    100.
 Search for a saddle point of order  1.
 GradGradGradGradGradGradGradGradGradGradGradGradGradGradGradGradGradGrad

 ---------------------------------------------------------------------------------------------------
                            Z-MATRIX (ANGSTROMS AND DEGREES)
   CD    Cent   Atom    N1       Length/X        N2       Alpha/Y        N3        Beta/Z          J
 ---------------------------------------------------------------------------------------------------
      1      1  C        0   0.000000          0.000000          0.000000
      2      2  O        0   0.000000          0.000000          2.348235
      3      3  H        0   2.194102          0.000000          0.197323
      4      4  H        0   1.470938         -1.615574         -0.250238
      5      5  H        0   0.754113          0.001160          2.954884
      6      6  H        0  -0.741940          0.327870          2.877078
      7      7  H        0  -0.071233          1.058852          0.221879
      8      8  H        0   1.350694          0.794649         -1.780874
      9      9  H        0  -1.994107         -0.156549         -0.748276
     10     10  H        0  -0.991896         -1.717632         -0.805346
     11     11  H        0  -1.609527         -1.071375          0.795702
     12     12  C        0   1.345314         -0.535631         -0.222705
     13     13  C        0  -1.229193         -0.790868         -0.233828
     14     14  O        0   0.943226         -0.058844         -1.555023
 ---------------------------------------------------------------------------------------------------
                         Z-Matrix orientation:                         
 ---------------------------------------------------------------------
 Center     Atomic      Atomic             Coordinates (Angstroms)
 Number     Number       Type             X           Y           Z
 ---------------------------------------------------------------------
      1          6           0        0.000000    0.000000    0.000000
      2          8           0        0.000000    0.000000    2.348235
      3          1           0        2.194102    0.000000    0.197323
      4          1           0        1.470938   -1.615574   -0.250238
      5          1           0        0.754113    0.001160    2.954884
      6          1           0       -0.741940    0.327870    2.877078
      7          1           0       -0.071233    1.058852    0.221879
      8          1           0        1.350694    0.794649   -1.780874
      9          1           0       -1.994107   -0.156549   -0.748276
     10          1           0       -0.991896   -1.717632   -0.805346
     11          1           0       -1.609527   -1.071375    0.795702
     12          6           0        1.345314   -0.535631   -0.222705
     13          6           0       -1.229193   -0.790868   -0.233828
     14          8           0        0.943226   -0.058844   -1.555023
 ---------------------------------------------------------------------
                    Distance matrix (angstroms):
                    1          2          3          4          5
     1  C    0.000000
     2  O    2.348235   0.000000
     3  H    2.202957   3.072541   0.000000
     4  H    2.199172   3.394967   1.825748   0.000000
     5  H    3.049595   0.967838   3.110902   3.660666   0.000000
     6  H    2.989239   0.968323   3.988600   4.295801   1.533287
     7  H    1.084192   2.376475   2.500703   3.123098   3.044540
     8  H    2.372204   4.416490   2.292611   2.857705   4.838692
     9  H    2.135623   3.686374   4.296482   3.792536   4.614215
    10  H    2.140724   3.725479   3.755821   2.526680   4.487998
    11  H    2.090828   2.479673   3.996686   3.298395   3.376269
    12  C    1.465049   2.950678   1.088010   1.087574   3.276391
    13  C    1.480224   2.967059   3.539818   2.823317   3.837798
    14  O    1.819680   4.016038   2.153804   2.098655   4.514269
                    6          7          8          9         10
     6  H    0.000000
     7  H    2.834478   0.000000
     8  H    5.127720   2.470364   0.000000
     9  H    3.865977   2.473023   3.627496   0.000000
    10  H    4.219811   3.100270   3.570846   1.855981   0.000000
    11  H    2.653812   2.689515   4.345538   1.835395   1.833704
    12  C    3.835481   2.178678   2.048796   3.401714   2.683123
    13  C    3.341665   2.229351   3.400446   1.118978   1.114376
    14  O    4.757400   2.331470   0.972363   3.047673   2.656744
                   11         12         13         14
    11  H    0.000000
    12  C    3.171003   0.000000
    13  C    1.132815   2.587152   0.000000
    14  O    3.614924   1.471078   2.645906   0.000000
 Symmetry turned off by external request.
 Stoichiometry    C3H9O2(1+)
 Framework group  C1[X(C3H9O2)]
 Deg. of freedom    36
 Full point group                 C1      NOp   1
 Rotational constants (GHZ):      6.7985253      2.9769564      2.3013065
 Standard basis: 6-31++G(d,p) (6D, 7F)
 The following finite field(s) will be applied:
 An electric field of              0.0000  0.0000  0.0025
 Integral buffers will be    131072 words long.
 Raffenetti 2 integral format.
 Two-electron integral symmetry is turned off.
   149 basis functions,   232 primitive gaussians,   149 cartesian basis functions
    21 alpha electrons       21 beta electrons
       nuclear repulsion energy       193.2729350108 Hartrees.
 NAtoms=   14 NActive=   14 NUniq=   14 SFac= 1.00D+00 NAtFMM=   50 NAOKFM=F Big=F
 One-electron integrals computed using PRISM.
 PrsmSu:  requested number of processors reduced to:  10 ShMem   1 Linda.
 NBasis=   149 RedAO= T  NBF=   149
 NBsUse=   149 1.00D-06 NBFU=   149
 The nuclear repulsion energy is now       193.3063294479 hartrees.
 Harris functional with IExCor=  402 diagonalized for initial guess.
 ExpMin= 3.60D-02 ExpMax= 5.48D+03 ExpMxC= 8.25D+02 IAcc=3 IRadAn=         0 AccDes= 0.00D+00
 HarFok:  IExCor=  402 AccDes= 0.00D+00 IRadAn=         0 IDoV= 1
 ScaDFX=  1.000000  1.000000  1.000000  1.000000
 FoFCou: FMM=F IPFlag=           0 FMFlag=      100000 FMFlg1=           0
         NFxFlg=           0 DoJE=T BraDBF=F KetDBF=T FulRan=T
         Omega=  0.000000  0.000000  1.000000  0.000000  0.000000 ICntrl=     500 IOpCl=  0
         NMat0=    1 NMatS0=    1 NMatT0=    0 NMatD0=    1 NMtDS0=    0 NMtDT0=    0
         I1Cent=           4 NGrid=           0.
 Symmetry not used in FoFCou.
 Requested convergence on RMS density matrix=1.00D-08 within 128 cycles.
 Requested convergence on MAX density matrix=1.00D-06.
 Requested convergence on             energy=1.00D-06.
 No special actions if energy rises.
 SCF Done:  E(RB3LYP) =  -269.885801981     A.U. after   12 cycles
             Convg  =    0.5209D-08             -V/T =  2.0097
 Range of M.O.s used for correlation:     1   149
 NBasis=   149 NAE=    21 NBE=    21 NFC=     0 NFV=     0
 NROrb=    149 NOA=    21 NOB=    21 NVA=   128 NVB=   128

 **** Warning!!: The largest alpha MO coefficient is  0.39631096D+02

 PrsmSu:  requested number of processors reduced to:  10 ShMem   1 Linda.
 PrsmSu:  requested number of processors reduced to:  17 ShMem   1 Linda.
 Symmetrizing basis deriv contribution to polar:
 IMax=3 JMax=2 DiffMx= 0.00D+00
 G2DrvN: will do     3 centers at a time, making    5 passes doing MaxLOS=2.
 Estimated number of processors is:   15
 Calling FoFCou, ICntrl=  3107 FMM=F I1Cent=   0 AccDes= 0.00D+00.
 CoulSu:  requested number of processors reduced to:  15 ShMem   1 Linda.
 Calling FoFCou, ICntrl=  3107 FMM=F I1Cent=   0 AccDes= 0.00D+00.
 CoulSu:  requested number of processors reduced to:  15 ShMem   1 Linda.
 Calling FoFCou, ICntrl=  3107 FMM=F I1Cent=   0 AccDes= 0.00D+00.
 CoulSu:  requested number of processors reduced to:  15 ShMem   1 Linda.
 Calling FoFCou, ICntrl=  3107 FMM=F I1Cent=   0 AccDes= 0.00D+00.
 CoulSu:  requested number of processors reduced to:  15 ShMem   1 Linda.
 Calling FoFCou, ICntrl=  3107 FMM=F I1Cent=   0 AccDes= 0.00D+00.
 CoulSu:  requested number of processors reduced to:  15 ShMem   1 Linda.
 FoFDir/FoFCou used for L=0 through L=2.
 End of G2Drv Frequency-dependent properties file   721 does not exist.
 End of G2Drv Frequency-dependent properties file   722 does not exist.
          IDoAtm=11111111111111
          Differentiating once with respect to electric field.
                with respect to dipole field.
          Differentiating once with respect to nuclear coordinates.
 PrRfSu:  requested number of processors reduced to:  16 ShMem   1 Linda.
 CalDSu:  requested number of processors reduced to:  21 ShMem   1 Linda.
 PrRfSu:  requested number of processors reduced to:  16 ShMem   1 Linda.
 CalDSu:  requested number of processors reduced to:  21 ShMem   1 Linda.
          There are    45 degrees of freedom in the 1st order CPHF.  IDoFFX=5.
     45 vectors produced by pass  0 Test12= 5.97D-15 2.22D-09 XBig12= 3.89D+01 2.90D+00.
 AX will form    23 AO Fock derivatives at one time.
 PrRfSu:  requested number of processors reduced to:  16 ShMem   1 Linda.
 CalDSu:  requested number of processors reduced to:  21 ShMem   1 Linda.
 PrRfSu:  requested number of processors reduced to:  16 ShMem   1 Linda.
 CalDSu:  requested number of processors reduced to:  21 ShMem   1 Linda.
     42 vectors produced by pass  1 Test12= 5.97D-15 2.22D-09 XBig12= 7.55D+00 4.89D-01.
 PrRfSu:  requested number of processors reduced to:  16 ShMem   1 Linda.
 CalDSu:  requested number of processors reduced to:  22 ShMem   1 Linda.
 PrRfSu:  requested number of processors reduced to:  16 ShMem   1 Linda.
 CalDSu:  requested number of processors reduced to:  22 ShMem   1 Linda.
     42 vectors produced by pass  2 Test12= 5.97D-15 2.22D-09 XBig12= 5.23D-02 2.96D-02.
 PrRfSu:  requested number of processors reduced to:  16 ShMem   1 Linda.
 CalDSu:  requested number of processors reduced to:  22 ShMem   1 Linda.
 PrRfSu:  requested number of processors reduced to:  16 ShMem   1 Linda.
 CalDSu:  requested number of processors reduced to:  22 ShMem   1 Linda.
     42 vectors produced by pass  3 Test12= 5.97D-15 2.22D-09 XBig12= 1.26D-04 1.42D-03.
 PrRfSu:  requested number of processors reduced to:  16 ShMem   1 Linda.
 CalDSu:  requested number of processors reduced to:  22 ShMem   1 Linda.
 PrRfSu:  requested number of processors reduced to:  16 ShMem   1 Linda.
 CalDSu:  requested number of processors reduced to:  22 ShMem   1 Linda.
     42 vectors produced by pass  4 Test12= 5.97D-15 2.22D-09 XBig12= 9.86D-08 3.45D-05.
 PrRfSu:  requested number of processors reduced to:  16 ShMem   1 Linda.
 CalDSu:  requested number of processors reduced to:  22 ShMem   1 Linda.
 PrRfSu:  requested number of processors reduced to:  16 ShMem   1 Linda.
 CalDSu:  requested number of processors reduced to:  22 ShMem   1 Linda.
     27 vectors produced by pass  5 Test12= 5.97D-15 2.22D-09 XBig12= 6.60D-11 8.03D-07.
 PrRfSu:  requested number of processors reduced to:  16 ShMem   1 Linda.
 CalDSu:  requested number of processors reduced to:  21 ShMem   1 Linda.
      3 vectors produced by pass  6 Test12= 5.97D-15 2.22D-09 XBig12= 4.83D-14 2.12D-08.
 Inverted reduced A of dimension   243 with in-core refinement.
 Isotropic polarizability for W=    0.000000       46.45 Bohr**3.
 End of Minotr Frequency-dependent properties file   721 does not exist.
 End of Minotr Frequency-dependent properties file   722 does not exist.

 **********************************************************************

            Population analysis using the SCF density.

 **********************************************************************

 Alpha  occ. eigenvalues --  -19.42546 -19.36047 -10.49064 -10.46189 -10.38090
 Alpha  occ. eigenvalues --   -1.28731  -1.21246  -1.00359  -0.90625  -0.80171
 Alpha  occ. eigenvalues --   -0.76234  -0.72854  -0.67657  -0.66170  -0.62732
 Alpha  occ. eigenvalues --   -0.59963  -0.57865  -0.56887  -0.56773  -0.53171
 Alpha  occ. eigenvalues --   -0.51102
 Alpha virt. eigenvalues --   -0.24758  -0.17680  -0.16169  -0.12992  -0.12394
 Alpha virt. eigenvalues --   -0.11746  -0.09409  -0.08900  -0.08586  -0.07398
 Alpha virt. eigenvalues --   -0.06343  -0.04616  -0.04488  -0.02696  -0.02643
 Alpha virt. eigenvalues --   -0.01660  -0.00722  -0.00444   0.00571   0.01563
 Alpha virt. eigenvalues --    0.02124   0.02854   0.03659   0.04171   0.04840
 Alpha virt. eigenvalues --    0.04954   0.05747   0.06652   0.07143   0.07714
 Alpha virt. eigenvalues --    0.08879   0.10741   0.12573   0.13692   0.14281
 Alpha virt. eigenvalues --    0.15718   0.17052   0.19822   0.20959   0.22574
 Alpha virt. eigenvalues --    0.23379   0.25865   0.44088   0.49636   0.51758
 Alpha virt. eigenvalues --    0.53788   0.57268   0.58699   0.59906   0.62142
 Alpha virt. eigenvalues --    0.68786   0.74999   0.77417   0.78244   0.80804
 Alpha virt. eigenvalues --    0.82466   0.83091   0.86483   0.86990   0.92498
 Alpha virt. eigenvalues --    0.94106   0.98354   0.99950   1.02641   1.03509
 Alpha virt. eigenvalues --    1.04973   1.06067   1.12301   1.15446   1.19680
 Alpha virt. eigenvalues --    1.26842   1.30845   1.32818   1.36718   1.41164
 Alpha virt. eigenvalues --    1.42397   1.46391   1.55070   1.57251   1.60363
 Alpha virt. eigenvalues --    1.69529   1.70204   1.74480   1.82727   1.84795
 Alpha virt. eigenvalues --    1.85264   1.89206   1.91659   1.93927   2.01448
 Alpha virt. eigenvalues --    2.06529   2.08535   2.12316   2.13842   2.17910
 Alpha virt. eigenvalues --    2.23776   2.27438   2.30907   2.33742   2.34230
 Alpha virt. eigenvalues --    2.35077   2.39261   2.42124   2.44850   2.47258
 Alpha virt. eigenvalues --    2.48443   2.53311   2.61795   2.62968   2.66928
 Alpha virt. eigenvalues --    2.69038   2.71857   2.78975   2.85127   3.01894
 Alpha virt. eigenvalues --    3.09081   3.18207   3.18953   3.22372   3.26461
 Alpha virt. eigenvalues --    3.27805   3.36272   3.38735   4.05619   4.14591
 Alpha virt. eigenvalues --    4.21500   4.32166   4.46262
          Condensed to atoms (all electrons):
              1          2          3          4          5          6
     1  C    6.412162  -0.212031  -0.015273  -0.033156   0.016126   0.034153
     2  O   -0.212031   8.258001   0.005111  -0.004551   0.282057   0.272244
     3  H   -0.015273   0.005111   0.543595  -0.041664  -0.001073   0.000728
     4  H   -0.033156  -0.004551  -0.041664   0.456058   0.000657  -0.000663
     5  H    0.016126   0.282057  -0.001073   0.000657   0.335749  -0.018209
     6  H    0.034153   0.272244   0.000728  -0.000663  -0.018209   0.339131
     7  H    0.330587  -0.027109  -0.025980   0.010182   0.002921   0.001775
     8  H    0.018937   0.000391  -0.017672   0.007532  -0.000060  -0.000141
     9  H   -0.032890   0.000718  -0.000973   0.001588  -0.000278  -0.000161
    10  H   -0.060807  -0.004038   0.000090   0.002360   0.000147   0.000801
    11  H   -0.121625   0.011945   0.002971  -0.004426   0.000823  -0.001815
    12  C   -0.168911   0.076204   0.326122   0.415829  -0.008768  -0.011910
    13  C   -0.373845   0.062914   0.026162  -0.017150  -0.002658  -0.013858
    14  O   -0.173913   0.012605  -0.011051  -0.031274   0.000768  -0.000793
              7          8          9         10         11         12
     1  C    0.330587   0.018937  -0.032890  -0.060807  -0.121625  -0.168911
     2  O   -0.027109   0.000391   0.000718  -0.004038   0.011945   0.076204
     3  H   -0.025980  -0.017672  -0.000973   0.000090   0.002971   0.326122
     4  H    0.010182   0.007532   0.001588   0.002360  -0.004426   0.415829
     5  H    0.002921  -0.000060  -0.000278   0.000147   0.000823  -0.008768
     6  H    0.001775  -0.000141  -0.000161   0.000801  -0.001815  -0.011910
     7  H    0.510435   0.005269  -0.010166   0.004598  -0.006346   0.001745
     8  H    0.005269   0.335128   0.000566   0.001602  -0.000825  -0.020136
     9  H   -0.010166   0.000566   0.464654  -0.014275  -0.020175   0.010052
    10  H    0.004598   0.001602  -0.014275   0.462510  -0.019449  -0.009414
    11  H   -0.006346  -0.000825  -0.020175  -0.019449   0.474677   0.017336
    12  C    0.001745  -0.020136   0.010052  -0.009414   0.017336   5.408010
    13  C   -0.036431  -0.016251   0.391589   0.415731   0.452814   0.094433
    14  O   -0.018749   0.251144  -0.008044   0.001451   0.006354   0.148418
             13         14
     1  C   -0.373845  -0.173913
     2  O    0.062914   0.012605
     3  H    0.026162  -0.011051
     4  H   -0.017150  -0.031274
     5  H   -0.002658   0.000768
     6  H   -0.013858  -0.000793
     7  H   -0.036431  -0.018749
     8  H   -0.016251   0.251144
     9  H    0.391589  -0.008044
    10  H    0.415731   0.001451
    11  H    0.452814   0.006354
    12  C    0.094433   0.148418
    13  C    5.542500   0.071294
    14  O    0.071294   8.095682
 Mulliken atomic charges:
              1
     1  C    0.380487
     2  O   -0.734460
     3  H    0.208908
     4  H    0.238677
     5  H    0.391797
     6  H    0.398721
     7  H    0.257268
     8  H    0.434516
     9  H    0.217796
    10  H    0.218693
    11  H    0.207742
    12  C   -0.279010
    13  C   -0.597244
    14  O   -0.343892
 Sum of Mulliken atomic charges =   1.00000
 Mulliken charges with hydrogens summed into heavy atoms:
              1
     1  C    0.637755
     2  O    0.056058
    12  C    0.168575
    13  C    0.046988
    14  O    0.090624
 Sum of Mulliken charges with hydrogens summed into heavy atoms =   1.00000
 APT atomic charges:
              1
     1  C    0.791894
     2  O   -0.621838
     3  H    0.055626
     4  H    0.074576
     5  H    0.290443
     6  H    0.294879
     7  H    0.044109
     8  H    0.324643
     9  H    0.070117
    10  H    0.066666
    11  H    0.094653
    12  C    0.309778
    13  C   -0.124136
    14  O   -0.671409
 Sum of APT charges=   1.00000
 APT Atomic charges with hydrogens summed into heavy atoms:
              1
     1  C    0.836003
     2  O   -0.036517
     3  H    0.000000
     4  H    0.000000
     5  H    0.000000
     6  H    0.000000
     7  H    0.000000
     8  H    0.000000
     9  H    0.000000
    10  H    0.000000
    11  H    0.000000
    12  C    0.439980
    13  C    0.107300
    14  O   -0.346766
 Sum of APT charges=   1.00000
 Electronic spatial extent (au):  <R**2>=            562.1809
 Charge=              1.0000 electrons
 Dipole moment (field-independent basis, Debye):
    X=              2.1589    Y=              0.6944    Z=              1.8943  Tot=              2.9549
 Quadrupole moment (field-independent basis, Debye-Ang):
   XX=            -19.0388   YY=            -26.0917   ZZ=            -15.1767
   XY=              1.1433   XZ=             -2.2445   YZ=             -0.4883
 Traceless Quadrupole moment (field-independent basis, Debye-Ang):
   XX=              1.0636   YY=             -5.9893   ZZ=              4.9257
   XY=              1.1433   XZ=             -2.2445   YZ=             -0.4883
 Octapole moment (field-independent basis, Debye-Ang**2):
  XXX=             -7.2530  YYY=             23.0416  ZZZ=             32.1307  XYY=             -2.3195
  XXY=              8.8319  XXZ=             -2.4607  XZZ=             -0.6280  YZZ=             19.9018
  YYZ=             -9.6156  XYZ=             -5.5833
 Hexadecapole moment (field-independent basis, Debye-Ang**3):
 XXXX=           -187.5800 YYYY=            -77.1884 ZZZZ=           -187.5121 XXXY=             -4.5913
 XXXZ=             20.1519 YYYX=             -8.5970 YYYZ=             -6.1197 ZZZX=             19.0844
 ZZZY=             -2.8139 XXYY=            -43.3029 XXZZ=            -64.9088 YYZZ=            -71.6966
 XXYZ=             -7.9811 YYXZ=              3.3071 ZZXY=              1.5558
 N-N= 1.933063294479D+02 E-N=-1.008204128460D+03  KE= 2.672888506804D+02
  Exact polarizability:  49.091   1.513  39.607  -4.061  -0.234  50.657
 Approx polarizability:  63.408   1.046  54.120  -7.593  -1.449  70.804
 PrsmSu:  requested number of processors reduced to:  10 ShMem   1 Linda.
 PrsmSu:  requested number of processors reduced to:  10 ShMem   1 Linda.
 Calling FoFJK, ICntrl=    100127 FMM=F ISym2X=0 I1Cent= 0 IOpClX= 0 NMat=1 NMatS=1 NMatT=0.
 CoulSu:  requested number of processors reduced to:  10 ShMem   1 Linda.
 CalDSu:  requested number of processors reduced to:  23 ShMem   1 Linda.
 -------------------------------------------------------------------
 Center     Atomic                   Forces (Hartrees/Bohr)
 Number     Number              X              Y              Z
 -------------------------------------------------------------------
      1        6          -0.000245978    0.000231734   -0.009234117
      2        8           0.000498599    0.001022117    0.008448696
      3        1          -0.000078912   -0.000082292   -0.000135260
      4        1           0.000048339    0.000059415    0.000051113
      5        1           0.000993828   -0.000811860   -0.000524470
      6        1          -0.001083516   -0.000117483   -0.000678420
      7        1           0.000275895    0.000073716   -0.000080761
      8        1           0.001911598    0.002556823   -0.000435207
      9        1           0.008937380   -0.012857225    0.007194925
     10        1          -0.007154890    0.011093723    0.007342053
     11        1           0.004345605    0.003136315   -0.020582225
     12        6           0.000239000    0.000750494   -0.000273931
     13        6          -0.007831789   -0.002340444    0.006572797
     14        8          -0.000855161   -0.002715034   -0.000165192
 -------------------------------------------------------------------
 Cartesian Forces:  Max     0.020582225 RMS     0.005495554

 GradGradGradGradGradGradGradGradGradGradGradGradGradGradGradGradGradGrad
 Berny optimization.
 Search for a saddle point.
 Step number   1 out of a maximum of  100
 All quantities printed in internal units (Hartrees-Bohrs-Radians)
 Swaping is turned off.
 Second derivative matrix not updated -- analytic derivatives used.
 ITU=  0
     Eigenvalues ---   -0.00306  -0.00081   0.00232   0.00349   0.00901
     Eigenvalues ---    0.00907   0.01023   0.01216   0.01447   0.01584
     Eigenvalues ---    0.02939   0.04110   0.04598   0.05085   0.06150
     Eigenvalues ---    0.07235   0.09704   0.10104   0.10972   0.13873
     Eigenvalues ---    0.14706   0.15894   0.17330   0.19303   0.25325
     Eigenvalues ---    0.35497   0.43957   0.57727   0.66627   0.71054
     Eigenvalues ---    0.83685   0.88449   0.97663   1.03597   1.07176
     Eigenvalues ---    1.08697
 Eigenvectors required to have negative eigenvalues:
                          Z5        Z1        Z6        Y2        X14
   1                    0.38440  -0.38041   0.29685   0.26396  -0.25461
                          X8        Z2        Z4        Z13       Y12
   1                   -0.24624   0.23904  -0.17758  -0.17101  -0.16446
 RFO step:  Lambda0=3.544087044D-03 Lambda=-5.56160856D-03.
 Linear search not attempted -- option 19 set.
 Maximum step size (   0.300) exceeded in Quadratic search.
    -- Step size scaled by   0.273
 TrRot=  0.002946 -0.003746  0.002015 -1.607010  0.002785  1.605653
 Variable       Old X    -DE/DX   Delta X   Delta X   Delta X     New X
                                 (Linear)    (Quad)   (Total)
    X1        0.00000  -0.00025   0.00000  -0.02149  -0.01852  -0.01852
    Y1        0.00000   0.00023   0.00000   0.02416   0.02034   0.02034
    Z1        0.00000  -0.00923   0.00000   0.03620   0.03828   0.03828
    X2        0.00000   0.00050   0.00000   0.00962   0.01203   0.01203
    Y2        0.00000   0.00102   0.00000  -0.07213  -0.08818  -0.08818
    Z2        4.43752   0.00845   0.00000  -0.02298  -0.02119   4.41633
    X3        4.14625  -0.00008   0.00000  -0.02387  -0.02093   4.12533
    Y3        0.00000  -0.00008   0.00000   0.03303   0.02261   0.02261
    Z3        0.37289  -0.00014   0.00000   0.01343   0.01594   0.38882
    X4        2.77967   0.00005   0.00000  -0.02196  -0.02308   2.75659
    Y4       -3.05299   0.00006   0.00000   0.02925   0.02292  -3.03007
    Z4       -0.47288   0.00005   0.00000   0.06230   0.05617  -0.41671
    X5        1.42507   0.00099   0.00000   0.05222   0.05481   1.47988
    Y5        0.00219  -0.00081   0.00000   0.14680   0.12572   0.12791
    Z5        5.58392  -0.00052   0.00000  -0.07642  -0.07386   5.51006
    X6       -1.40206  -0.00108   0.00000  -0.02408  -0.02103  -1.42309
    Y6        0.61958  -0.00012   0.00000  -0.14248  -0.15935   0.46024
    Z6        5.43689  -0.00068   0.00000  -0.02679  -0.02361   5.41328
    X7       -0.13461   0.00028   0.00000  -0.02644  -0.02076  -0.15537
    Y7        2.00094   0.00007   0.00000   0.03776   0.03312   2.03406
    Z7        0.41929  -0.00008   0.00000  -0.02366  -0.01599   0.40330
    X8        2.55244   0.00191   0.00000   0.07225   0.07752   2.62996
    Y8        1.50167   0.00256   0.00000  -0.04442  -0.04227   1.45940
    Z8       -3.36536  -0.00044   0.00000  -0.03785  -0.03151  -3.39687
    X9       -3.76832   0.00894   0.00000  -0.01348  -0.01079  -3.77911
    Y9       -0.29583  -0.01286   0.00000   0.00110   0.00634  -0.28950
    Z9       -1.41404   0.00719   0.00000   0.03006   0.03089  -1.38315
   X10       -1.87441  -0.00715   0.00000  -0.02127  -0.02254  -1.89695
   Y10       -3.24585   0.01109   0.00000   0.03046   0.03344  -3.21241
   Z10       -1.52188   0.00734   0.00000   0.03496   0.02785  -1.49403
   X11       -3.04157   0.00435   0.00000  -0.02977  -0.02971  -3.07127
   Y11       -2.02461   0.00314   0.00000   0.00978   0.00604  -2.01857
   Z11        1.50366  -0.02058   0.00000  -0.00348  -0.00738   1.49628
   X12        2.54228   0.00024   0.00000  -0.01926  -0.01760   2.52467
   Y12       -1.01220   0.00075   0.00000   0.03161   0.02560  -0.98660
   Z12       -0.42085  -0.00027   0.00000   0.00377   0.00330  -0.41755
   X13       -2.32284  -0.00783   0.00000  -0.01478  -0.01379  -2.33663
   Y13       -1.49452  -0.00234   0.00000   0.02262   0.02321  -1.47131
   Z13       -0.44187   0.00657   0.00000   0.02636   0.02405  -0.41782
   X14        1.78244  -0.00086   0.00000   0.05133   0.05438   1.83682
   Y14       -0.11120  -0.00272   0.00000  -0.03155  -0.02954  -0.14074
   Z14       -2.93857  -0.00017   0.00000  -0.02475  -0.02294  -2.96151
         Item               Value     Threshold  Converged?
 Maximum Force            0.020582     0.000450     NO 
 RMS     Force            0.005496     0.000300     NO 
 Maximum Displacement     0.159347     0.001800     NO 
 RMS     Displacement     0.045868     0.001200     NO 
 Predicted change in Energy=-4.759667D-04
 GradGradGradGradGradGradGradGradGradGradGradGradGradGradGradGradGradGrad

                          Input orientation:                          
 ---------------------------------------------------------------------
 Center     Atomic      Atomic             Coordinates (Angstroms)
 Number     Number       Type             X           Y           Z
 ---------------------------------------------------------------------
      1          6           0       -0.009798    0.010765    0.020256
      2          8           0        0.006365   -0.046662    2.337023
      3          1           0        2.183029    0.011967    0.205756
      4          1           0        1.458725   -1.603445   -0.220515
      5          1           0        0.783119    0.067686    2.915797
      6          1           0       -0.753068    0.243547    2.864585
      7          1           0       -0.082221    1.076378    0.213419
      8          1           0        1.391716    0.772281   -1.797548
      9          1           0       -1.999817   -0.153196   -0.731929
     10          1           0       -1.003824   -1.699936   -0.790608
     11          1           0       -1.625247   -1.068180    0.791797
     12          6           0        1.335999   -0.522085   -0.220959
     13          6           0       -1.236490   -0.778586   -0.221100
     14          8           0        0.972003   -0.074477   -1.567164
 ---------------------------------------------------------------------
                    Distance matrix (angstroms):
                    1          2          3          4          5
     1  C    0.000000
     2  O    2.317535   0.000000
     3  H    2.200659   3.046901   0.000000
     4  H    2.195496   3.327751   1.820955   0.000000
     5  H    3.002685   0.975398   3.050766   3.617399   0.000000
     6  H    2.949042   0.969165   3.967829   4.221522   1.547068
     7  H    1.085398   2.403905   2.502875   3.121580   3.011498
     8  H    2.418379   4.436726   2.284180   2.852297   4.804421
     9  H    2.133739   3.668049   4.289841   3.785008   4.593412
    10  H    2.138243   3.679113   3.752250   2.529519   4.478291
    11  H    2.090233   2.468477   4.001640   3.289706   3.406140
    12  C    1.467407   2.921854   1.088465   1.088303   3.239251
    13  C    1.478547   2.936732   3.535574   2.818613   3.825587
    14  O    1.868449   4.021929   2.148791   2.094781   4.489190
                    6          7          8          9         10
     6  H    0.000000
     7  H    2.858728   0.000000
     8  H    5.158986   2.511762   0.000000
     9  H    3.827101   2.466315   3.673492   0.000000
    10  H    4.147341   3.092788   3.586697   1.840612   0.000000
    11  H    2.603416   2.704548   4.381103   1.816382   1.813639
    12  C    3.804074   2.180623   2.040617   3.394826   2.680785
    13  C    3.286321   2.227563   3.434798   1.111184   1.107862
    14  O    4.766279   2.367769   0.972745   3.087966   2.673771
                   11         12         13         14
    11  H    0.000000
    12  C    3.176929   0.000000
    13  C    1.122924   2.585245   0.000000
    14  O    3.646623   1.464621   2.680504   0.000000
 Symmetry turned off by external request.
 Stoichiometry    C3H9O2(1+)
 Framework group  C1[X(C3H9O2)]
 Deg. of freedom    36
 Full point group                 C1      NOp   1
 Rotational constants (GHZ):      6.8329324      2.9882332      2.3010594
 Standard basis: 6-31++G(d,p) (6D, 7F)
 The following finite field(s) will be applied:
 An electric field of              0.0000  0.0000  0.0025
 Integral buffers will be    131072 words long.
 Raffenetti 2 integral format.
 Two-electron integral symmetry is turned off.
   149 basis functions,   232 primitive gaussians,   149 cartesian basis functions
    21 alpha electrons       21 beta electrons
       nuclear repulsion energy       193.2312636491 Hartrees.
 NAtoms=   14 NActive=   14 NUniq=   14 SFac= 1.00D+00 NAtFMM=   50 NAOKFM=F Big=F
 One-electron integrals computed using PRISM.
 PrsmSu:  requested number of processors reduced to:  10 ShMem   1 Linda.
 NBasis=   149 RedAO= T  NBF=   149
 NBsUse=   149 1.00D-06 NBFU=   149
 The nuclear repulsion energy is now       193.2647061641 hartrees.
 Initial guess read from the read-write file.
 B after Tr=     0.000000    0.000000    0.000000
         Rot=    1.000000    0.000000    0.000000    0.000000 Ang=   0.00 deg.
 Harris functional with IExCor=  402 diagonalized for initial guess.
 ExpMin= 3.60D-02 ExpMax= 5.48D+03 ExpMxC= 8.25D+02 IAcc=3 IRadAn=         0 AccDes= 0.00D+00
 HarFok:  IExCor=  402 AccDes= 0.00D+00 IRadAn=         0 IDoV= 1
 ScaDFX=  1.000000  1.000000  1.000000  1.000000
 FoFCou: FMM=F IPFlag=           0 FMFlag=      100000 FMFlg1=           0
         NFxFlg=           0 DoJE=T BraDBF=F KetDBF=T FulRan=T
         Omega=  0.000000  0.000000  1.000000  0.000000  0.000000 ICntrl=     500 IOpCl=  0
         NMat0=    1 NMatS0=    1 NMatT0=    0 NMatD0=    1 NMtDS0=    0 NMtDT0=    0
         I1Cent=           4 NGrid=           0.
 Symmetry not used in FoFCou.
 Requested convergence on RMS density matrix=1.00D-08 within 128 cycles.
 Requested convergence on MAX density matrix=1.00D-06.
 Requested convergence on             energy=1.00D-06.
 No special actions if energy rises.
 SCF Done:  E(RB3LYP) =  -269.886223422     A.U. after   11 cycles
             Convg  =    0.4414D-08             -V/T =  2.0097
 Range of M.O.s used for correlation:     1   149
 NBasis=   149 NAE=    21 NBE=    21 NFC=     0 NFV=     0
 NROrb=    149 NOA=    21 NOB=    21 NVA=   128 NVB=   128

 **** Warning!!: The largest alpha MO coefficient is  0.41553272D+02

 PrsmSu:  requested number of processors reduced to:  10 ShMem   1 Linda.
 PrsmSu:  requested number of processors reduced to:  17 ShMem   1 Linda.
 Symmetrizing basis deriv contribution to polar:
 IMax=3 JMax=2 DiffMx= 0.00D+00
 G2DrvN: will do     3 centers at a time, making    5 passes doing MaxLOS=2.
 Estimated number of processors is:   15
 Calling FoFCou, ICntrl=  3107 FMM=F I1Cent=   0 AccDes= 0.00D+00.
 CoulSu:  requested number of processors reduced to:  15 ShMem   1 Linda.
 Calling FoFCou, ICntrl=  3107 FMM=F I1Cent=   0 AccDes= 0.00D+00.
 CoulSu:  requested number of processors reduced to:  15 ShMem   1 Linda.
 Calling FoFCou, ICntrl=  3107 FMM=F I1Cent=   0 AccDes= 0.00D+00.
 CoulSu:  requested number of processors reduced to:  15 ShMem   1 Linda.
 Calling FoFCou, ICntrl=  3107 FMM=F I1Cent=   0 AccDes= 0.00D+00.
 CoulSu:  requested number of processors reduced to:  15 ShMem   1 Linda.
 Calling FoFCou, ICntrl=  3107 FMM=F I1Cent=   0 AccDes= 0.00D+00.
 CoulSu:  requested number of processors reduced to:  15 ShMem   1 Linda.
 FoFDir/FoFCou used for L=0 through L=2.
 End of G2Drv Frequency-dependent properties file   721 does not exist.
 End of G2Drv Frequency-dependent properties file   722 does not exist.
          IDoAtm=11111111111111
          Differentiating once with respect to electric field.
                with respect to dipole field.
          Differentiating once with respect to nuclear coordinates.
 PrRfSu:  requested number of processors reduced to:  16 ShMem   1 Linda.
 CalDSu:  requested number of processors reduced to:  21 ShMem   1 Linda.
 PrRfSu:  requested number of processors reduced to:  16 ShMem   1 Linda.
 CalDSu:  requested number of processors reduced to:  21 ShMem   1 Linda.
          There are    45 degrees of freedom in the 1st order CPHF.  IDoFFX=5.
     45 vectors produced by pass  0 Test12= 5.97D-15 2.22D-09 XBig12= 4.22D+01 3.16D+00.
 AX will form    23 AO Fock derivatives at one time.
 PrRfSu:  requested number of processors reduced to:  16 ShMem   1 Linda.
 CalDSu:  requested number of processors reduced to:  21 ShMem   1 Linda.
 PrRfSu:  requested number of processors reduced to:  16 ShMem   1 Linda.
 CalDSu:  requested number of processors reduced to:  21 ShMem   1 Linda.
     42 vectors produced by pass  1 Test12= 5.97D-15 2.22D-09 XBig12= 7.87D+00 5.00D-01.
 PrRfSu:  requested number of processors reduced to:  16 ShMem   1 Linda.
 CalDSu:  requested number of processors reduced to:  22 ShMem   1 Linda.
 PrRfSu:  requested number of processors reduced to:  16 ShMem   1 Linda.
 CalDSu:  requested number of processors reduced to:  22 ShMem   1 Linda.
     42 vectors produced by pass  2 Test12= 5.97D-15 2.22D-09 XBig12= 4.76D-02 2.68D-02.
 PrRfSu:  requested number of processors reduced to:  16 ShMem   1 Linda.
 CalDSu:  requested number of processors reduced to:  22 ShMem   1 Linda.
 PrRfSu:  requested number of processors reduced to:  16 ShMem   1 Linda.
 CalDSu:  requested number of processors reduced to:  22 ShMem   1 Linda.
     42 vectors produced by pass  3 Test12= 5.97D-15 2.22D-09 XBig12= 1.11D-04 1.47D-03.
 PrRfSu:  requested number of processors reduced to:  16 ShMem   1 Linda.
 CalDSu:  requested number of processors reduced to:  22 ShMem   1 Linda.
 PrRfSu:  requested number of processors reduced to:  16 ShMem   1 Linda.
 CalDSu:  requested number of processors reduced to:  22 ShMem   1 Linda.
     42 vectors produced by pass  4 Test12= 5.97D-15 2.22D-09 XBig12= 8.99D-08 3.15D-05.
 PrRfSu:  requested number of processors reduced to:  16 ShMem   1 Linda.
 CalDSu:  requested number of processors reduced to:  22 ShMem   1 Linda.
 PrRfSu:  requested number of processors reduced to:  16 ShMem   1 Linda.
 CalDSu:  requested number of processors reduced to:  22 ShMem   1 Linda.
     28 vectors produced by pass  5 Test12= 5.97D-15 2.22D-09 XBig12= 6.03D-11 7.55D-07.
 PrRfSu:  requested number of processors reduced to:  16 ShMem   1 Linda.
 CalDSu:  requested number of processors reduced to:  20 ShMem   1 Linda.
      3 vectors produced by pass  6 Test12= 5.97D-15 2.22D-09 XBig12= 4.48D-14 2.20D-08.
 Inverted reduced A of dimension   244 with in-core refinement.
 Isotropic polarizability for W=    0.000000       47.03 Bohr**3.
 End of Minotr Frequency-dependent properties file   721 does not exist.
 End of Minotr Frequency-dependent properties file   722 does not exist.
 PrsmSu:  requested number of processors reduced to:  10 ShMem   1 Linda.
 PrsmSu:  requested number of processors reduced to:  10 ShMem   1 Linda.
 Calling FoFJK, ICntrl=    100127 FMM=F ISym2X=0 I1Cent= 0 IOpClX= 0 NMat=1 NMatS=1 NMatT=0.
 CoulSu:  requested number of processors reduced to:  10 ShMem   1 Linda.
 CalDSu:  requested number of processors reduced to:  23 ShMem   1 Linda.
 -------------------------------------------------------------------
 Center     Atomic                   Forces (Hartrees/Bohr)
 Number     Number              X              Y              Z
 -------------------------------------------------------------------
      1        6          -0.000251758    0.000732498   -0.007059221
      2        8           0.005846108    0.001679474    0.010266582
      3        1          -0.000065055   -0.000010315   -0.000141676
      4        1           0.000036048    0.000264857   -0.000050314
      5        1          -0.005455665   -0.001209451   -0.004123594
      6        1           0.000162339   -0.000305406   -0.000332156
      7        1           0.000217749   -0.000285802   -0.000196063
      8        1           0.001298202    0.001731745   -0.000313767
      9        1           0.006363876   -0.009471576    0.005065322
     10        1          -0.005332649    0.008005827    0.005225404
     11        1           0.003192176    0.002355178   -0.015156039
     12        6           0.000283745    0.000190314   -0.000485145
     13        6          -0.005692247   -0.001693369    0.004746603
     14        8          -0.000602871   -0.001983974    0.000054063
 -------------------------------------------------------------------
 Cartesian Forces:  Max     0.015156039 RMS     0.004445279

 GradGradGradGradGradGradGradGradGradGradGradGradGradGradGradGradGradGrad
 Berny optimization.
 Search for a saddle point.
 Step number   2 out of a maximum of  100
 All quantities printed in internal units (Hartrees-Bohrs-Radians)
 Swaping is turned off.
 Second derivative matrix not updated -- analytic derivatives used.
 ITU=  0  0
     Eigenvalues ---   -0.00500   0.00122   0.00298   0.00364   0.00658
     Eigenvalues ---    0.01067   0.01162   0.01300   0.01485   0.01890
     Eigenvalues ---    0.02904   0.04189   0.04355   0.05010   0.06149
     Eigenvalues ---    0.07207   0.09660   0.09976   0.10930   0.13866
     Eigenvalues ---    0.14696   0.15973   0.17343   0.19298   0.25720
     Eigenvalues ---    0.36242   0.45334   0.58944   0.68510   0.73098
     Eigenvalues ---    0.83445   0.85364   0.97347   1.02883   1.05764
     Eigenvalues ---    1.07954
 Eigenvectors required to have negative eigenvalues:
                          Z1        Z5        Z6        Z2        X14
   1                    0.42128  -0.37205  -0.35509  -0.26290   0.25551
                          X8        Y2        X11       Z13       Y12
   1                    0.23000  -0.20613  -0.19571   0.18481   0.15148
 RFO step:  Lambda0=2.522718928D-03 Lambda=-3.14905746D-03.
 Linear search not attempted -- option 19 set.
 Maximum step size (   0.300) exceeded in Quadratic search.
    -- Step size scaled by   0.461
 TrRot=  0.003151 -0.004020  0.002172  1.498885 -0.003072 -1.499281
 Variable       Old X    -DE/DX   Delta X   Delta X   Delta X     New X
                                 (Linear)    (Quad)   (Total)
    X1       -0.01852  -0.00025   0.00000  -0.03740  -0.03425  -0.05277
    Y1        0.02034   0.00073   0.00000   0.02188   0.01755   0.03789
    Z1        0.03828  -0.00706   0.00000   0.07087   0.07316   0.11144
    X2        0.01203   0.00585   0.00000   0.00574   0.00786   0.01988
    Y2       -0.08818   0.00168   0.00000  -0.07990  -0.09734  -0.18552
    Z2        4.41633   0.01027   0.00000  -0.03921  -0.03757   4.37876
    X3        4.12533  -0.00007   0.00000  -0.04100  -0.03790   4.08742
    Y3        0.02261  -0.00001   0.00000   0.06506   0.05819   0.08080
    Z3        0.38882  -0.00014   0.00000   0.01545   0.01878   0.40761
    X4        2.75659   0.00004   0.00000  -0.01495  -0.01289   2.74370
    Y4       -3.03007   0.00026   0.00000   0.05643   0.05241  -2.97766
    Z4       -0.41671  -0.00005   0.00000   0.06701   0.06067  -0.35604
    X5        1.47988  -0.00546   0.00000   0.02316   0.02515   1.50503
    Y5        0.12791  -0.00121   0.00000  -0.04605  -0.06731   0.06060
    Z5        5.51006  -0.00412   0.00000  -0.07968  -0.07695   5.43311
    X6       -1.42309   0.00016   0.00000   0.02660   0.02877  -1.39432
    Y6        0.46024  -0.00031   0.00000   0.04501   0.02520   0.48543
    Z6        5.41328  -0.00033   0.00000  -0.07805  -0.07466   5.33862
    X7       -0.15537   0.00022   0.00000  -0.05429  -0.05041  -0.20579
    Y7        2.03406  -0.00029   0.00000   0.03717   0.03202   2.06608
    Z7        0.40330  -0.00020   0.00000  -0.01061  -0.00214   0.40116
    X8        2.62996   0.00130   0.00000   0.09886   0.10333   2.73329
    Y8        1.45940   0.00173   0.00000  -0.04527  -0.03981   1.41959
    Z8       -3.39687  -0.00031   0.00000  -0.05061  -0.04349  -3.44036
    X9       -3.77911   0.00636   0.00000  -0.01912  -0.01579  -3.79490
    Y9       -0.28950  -0.00947   0.00000  -0.02022  -0.01863  -0.30813
    Z9       -1.38315   0.00507   0.00000   0.04365   0.04404  -1.33910
   X10       -1.89695  -0.00533   0.00000  -0.01631  -0.01410  -1.91105
   Y10       -3.21241   0.00801   0.00000   0.02332   0.02449  -3.18792
   Z10       -1.49403   0.00523   0.00000   0.05268   0.04467  -1.44937
   X11       -3.07127   0.00319   0.00000  -0.04735  -0.04533  -3.11660
   Y11       -2.01857   0.00236   0.00000  -0.01122  -0.01859  -2.03716
   Z11        1.49628  -0.01516   0.00000   0.00330  -0.00144   1.49484
   X12        2.52467   0.00028   0.00000  -0.02608  -0.02321   2.50147
   Y12       -0.98660   0.00019   0.00000   0.05627   0.05257  -0.93403
   Z12       -0.41755  -0.00049   0.00000  -0.00748  -0.00761  -0.42516
   X13       -2.33663  -0.00569   0.00000  -0.01899  -0.01633  -2.35296
   Y13       -1.47131  -0.00169   0.00000   0.01048   0.00855  -1.46277
   Z13       -0.41782   0.00475   0.00000   0.04439   0.04157  -0.37624
   X14        1.83682  -0.00060   0.00000   0.08138   0.08512   1.92194
   Y14       -0.14074  -0.00198   0.00000  -0.03372  -0.02929  -0.17003
   Z14       -2.96151   0.00005   0.00000  -0.04110  -0.03903  -3.00054
         Item               Value     Threshold  Converged?
 Maximum Force            0.015156     0.000450     NO 
 RMS     Force            0.004445     0.000300     NO 
 Maximum Displacement     0.103328     0.001800     NO 
 RMS     Displacement     0.045822     0.001200     NO 
 Predicted change in Energy=-1.541370D-04
 GradGradGradGradGradGradGradGradGradGradGradGradGradGradGradGradGradGrad

                          Input orientation:                          
 ---------------------------------------------------------------------
 Center     Atomic      Atomic             Coordinates (Angstroms)
 Number     Number       Type             X           Y           Z
 ---------------------------------------------------------------------
      1          6           0       -0.027924    0.020052    0.058971
      2          8           0        0.010522   -0.098173    2.317140
      3          1           0        2.162971    0.042758    0.215696
      4          1           0        1.451902   -1.575709   -0.188408
      5          1           0        0.796426    0.032070    2.875076
      6          1           0       -0.737844    0.256880    2.825074
      7          1           0       -0.108897    1.093321    0.212285
      8          1           0        1.446394    0.751212   -1.820561
      9          1           0       -2.008175   -0.163055   -0.708623
     10          1           0       -1.011286   -1.686976   -0.766971
     11          1           0       -1.649236   -1.078016    0.791034
     12          6           0        1.323720   -0.494266   -0.224984
     13          6           0       -1.245131   -0.774062   -0.199100
     14          8           0        1.017049   -0.089979   -1.587817
 ---------------------------------------------------------------------
                    Distance matrix (angstroms):
                    1          2          3          4          5
     1  C    0.000000
     2  O    2.261589   0.000000
     3  H    2.196611   3.011473   0.000000
     4  H    2.190327   3.246300   1.813382   0.000000
     5  H    2.934305   0.972575   2.989960   3.521298   0.000000
     6  H    2.865554   0.971654   3.907612   4.151440   1.551459
     7  H    1.087184   2.421639   2.503014   3.117751   3.006048
     8  H    2.498169   4.461363   2.271945   2.842273   4.794647
     9  H    2.131695   3.637937   4.277287   3.773374   4.554861
    10  H    2.136148   3.616646   3.746134   2.532668   4.414459
    11  H    2.090532   2.458432   4.014981   3.289995   3.399527
    12  C    1.473802   2.888559   1.089466   1.089627   3.188329
    13  C    1.476080   2.892223   3.529080   2.813670   3.777348
    14  O    1.953455   4.032599   2.140891   2.086824   4.470009
                    6          7          8          9         10
     6  H    0.000000
     7  H    2.814583   0.000000
     8  H    5.157247   2.582331   0.000000
     9  H    3.778505   2.456381   3.742505   0.000000
    10  H    4.093426   3.082742   3.618702   1.821957   0.000000
    11  H    2.598057   2.724390   4.444034   1.793032   1.790306
    12  C    3.757276   2.182665   2.027839   3.383065   2.677416
    13  C    3.235091   2.224272   3.492836   1.102352   1.100260
    14  O    4.761677   2.430703   0.972681   3.151239   2.708935
                   11         12         13         14
    11  H    0.000000
    12  C    3.195548   0.000000
    13  C    1.111780   2.584173   0.000000
    14  O    3.707321   1.454238   2.741161   0.000000
 Symmetry turned off by external request.
 Stoichiometry    C3H9O2(1+)
 Framework group  C1[X(C3H9O2)]
 Deg. of freedom    36
 Full point group                 C1      NOp   1
 Rotational constants (GHZ):      6.8785828      2.9934270      2.2980981
 Standard basis: 6-31++G(d,p) (6D, 7F)
 The following finite field(s) will be applied:
 An electric field of              0.0000  0.0000  0.0025
 Integral buffers will be    131072 words long.
 Raffenetti 2 integral format.
 Two-electron integral symmetry is turned off.
   149 basis functions,   232 primitive gaussians,   149 cartesian basis functions
    21 alpha electrons       21 beta electrons
       nuclear repulsion energy       193.1352851294 Hartrees.
 NAtoms=   14 NActive=   14 NUniq=   14 SFac= 1.00D+00 NAtFMM=   50 NAOKFM=F Big=F
 One-electron integrals computed using PRISM.
 PrsmSu:  requested number of processors reduced to:  10 ShMem   1 Linda.
 NBasis=   149 RedAO= T  NBF=   149
 NBsUse=   149 1.00D-06 NBFU=   149
 The nuclear repulsion energy is now       193.1687262258 hartrees.
 Initial guess read from the read-write file.
 B after Tr=     0.000000    0.000000    0.000000
         Rot=    1.000000    0.000000    0.000000    0.000000 Ang=   0.00 deg.
 Harris functional with IExCor=  402 diagonalized for initial guess.
 ExpMin= 3.60D-02 ExpMax= 5.48D+03 ExpMxC= 8.25D+02 IAcc=3 IRadAn=         0 AccDes= 0.00D+00
 HarFok:  IExCor=  402 AccDes= 0.00D+00 IRadAn=         0 IDoV= 1
 ScaDFX=  1.000000  1.000000  1.000000  1.000000
 FoFCou: FMM=F IPFlag=           0 FMFlag=      100000 FMFlg1=           0
         NFxFlg=           0 DoJE=T BraDBF=F KetDBF=T FulRan=T
         Omega=  0.000000  0.000000  1.000000  0.000000  0.000000 ICntrl=     500 IOpCl=  0
         NMat0=    1 NMatS0=    1 NMatT0=    0 NMatD0=    1 NMtDS0=    0 NMtDT0=    0
         I1Cent=           4 NGrid=           0.
 Symmetry not used in FoFCou.
 Requested convergence on RMS density matrix=1.00D-08 within 128 cycles.
 Requested convergence on MAX density matrix=1.00D-06.
 Requested convergence on             energy=1.00D-06.
 No special actions if energy rises.
 SCF Done:  E(RB3LYP) =  -269.886381261     A.U. after   11 cycles
             Convg  =    0.6586D-08             -V/T =  2.0096
 Range of M.O.s used for correlation:     1   149
 NBasis=   149 NAE=    21 NBE=    21 NFC=     0 NFV=     0
 NROrb=    149 NOA=    21 NOB=    21 NVA=   128 NVB=   128

 **** Warning!!: The largest alpha MO coefficient is  0.45581996D+02

 PrsmSu:  requested number of processors reduced to:  10 ShMem   1 Linda.
 PrsmSu:  requested number of processors reduced to:  17 ShMem   1 Linda.
 Symmetrizing basis deriv contribution to polar:
 IMax=3 JMax=2 DiffMx= 0.00D+00
 G2DrvN: will do     3 centers at a time, making    5 passes doing MaxLOS=2.
 Estimated number of processors is:   15
 Calling FoFCou, ICntrl=  3107 FMM=F I1Cent=   0 AccDes= 0.00D+00.
 CoulSu:  requested number of processors reduced to:  15 ShMem   1 Linda.
 Calling FoFCou, ICntrl=  3107 FMM=F I1Cent=   0 AccDes= 0.00D+00.
 CoulSu:  requested number of processors reduced to:  15 ShMem   1 Linda.
 Calling FoFCou, ICntrl=  3107 FMM=F I1Cent=   0 AccDes= 0.00D+00.
 CoulSu:  requested number of processors reduced to:  15 ShMem   1 Linda.
 Calling FoFCou, ICntrl=  3107 FMM=F I1Cent=   0 AccDes= 0.00D+00.
 CoulSu:  requested number of processors reduced to:  15 ShMem   1 Linda.
 Calling FoFCou, ICntrl=  3107 FMM=F I1Cent=   0 AccDes= 0.00D+00.
 CoulSu:  requested number of processors reduced to:  15 ShMem   1 Linda.
 FoFDir/FoFCou used for L=0 through L=2.
 End of G2Drv Frequency-dependent properties file   721 does not exist.
 End of G2Drv Frequency-dependent properties file   722 does not exist.
          IDoAtm=11111111111111
          Differentiating once with respect to electric field.
                with respect to dipole field.
          Differentiating once with respect to nuclear coordinates.
 PrRfSu:  requested number of processors reduced to:  16 ShMem   1 Linda.
 CalDSu:  requested number of processors reduced to:  21 ShMem   1 Linda.
 PrRfSu:  requested number of processors reduced to:  16 ShMem   1 Linda.
 CalDSu:  requested number of processors reduced to:  21 ShMem   1 Linda.
          There are    45 degrees of freedom in the 1st order CPHF.  IDoFFX=5.
     45 vectors produced by pass  0 Test12= 5.97D-15 2.22D-09 XBig12= 4.76D+01 4.62D+00.
 AX will form    23 AO Fock derivatives at one time.
 PrRfSu:  requested number of processors reduced to:  16 ShMem   1 Linda.
 CalDSu:  requested number of processors reduced to:  21 ShMem   1 Linda.
 PrRfSu:  requested number of processors reduced to:  16 ShMem   1 Linda.
 CalDSu:  requested number of processors reduced to:  21 ShMem   1 Linda.
     42 vectors produced by pass  1 Test12= 5.97D-15 2.22D-09 XBig12= 8.17D+00 3.97D-01.
 PrRfSu:  requested number of processors reduced to:  16 ShMem   1 Linda.
 CalDSu:  requested number of processors reduced to:  22 ShMem   1 Linda.
 PrRfSu:  requested number of processors reduced to:  16 ShMem   1 Linda.
 CalDSu:  requested number of processors reduced to:  22 ShMem   1 Linda.
     42 vectors produced by pass  2 Test12= 5.97D-15 2.22D-09 XBig12= 4.03D-02 2.25D-02.
 PrRfSu:  requested number of processors reduced to:  16 ShMem   1 Linda.
 CalDSu:  requested number of processors reduced to:  22 ShMem   1 Linda.
 PrRfSu:  requested number of processors reduced to:  16 ShMem   1 Linda.
 CalDSu:  requested number of processors reduced to:  22 ShMem   1 Linda.
     42 vectors produced by pass  3 Test12= 5.97D-15 2.22D-09 XBig12= 9.66D-05 1.31D-03.
 PrRfSu:  requested number of processors reduced to:  16 ShMem   1 Linda.
 CalDSu:  requested number of processors reduced to:  22 ShMem   1 Linda.
 PrRfSu:  requested number of processors reduced to:  16 ShMem   1 Linda.
 CalDSu:  requested number of processors reduced to:  22 ShMem   1 Linda.
     42 vectors produced by pass  4 Test12= 5.97D-15 2.22D-09 XBig12= 8.80D-08 3.45D-05.
 PrRfSu:  requested number of processors reduced to:  16 ShMem   1 Linda.
 CalDSu:  requested number of processors reduced to:  22 ShMem   1 Linda.
 PrRfSu:  requested number of processors reduced to:  16 ShMem   1 Linda.
 CalDSu:  requested number of processors reduced to:  22 ShMem   1 Linda.
     31 vectors produced by pass  5 Test12= 5.97D-15 2.22D-09 XBig12= 5.80D-11 9.25D-07.
 PrRfSu:  requested number of processors reduced to:  15 ShMem   1 Linda.
 CalDSu:  requested number of processors reduced to:  20 ShMem   1 Linda.
      3 vectors produced by pass  6 Test12= 5.97D-15 2.22D-09 XBig12= 4.11D-14 2.05D-08.
 Inverted reduced A of dimension   247 with in-core refinement.
 Isotropic polarizability for W=    0.000000       47.90 Bohr**3.
 End of Minotr Frequency-dependent properties file   721 does not exist.
 End of Minotr Frequency-dependent properties file   722 does not exist.
 PrsmSu:  requested number of processors reduced to:  10 ShMem   1 Linda.
 PrsmSu:  requested number of processors reduced to:  10 ShMem   1 Linda.
 Calling FoFJK, ICntrl=    100127 FMM=F ISym2X=0 I1Cent= 0 IOpClX= 0 NMat=1 NMatS=1 NMatT=0.
 CoulSu:  requested number of processors reduced to:  10 ShMem   1 Linda.
 CalDSu:  requested number of processors reduced to:  23 ShMem   1 Linda.
 -------------------------------------------------------------------
 Center     Atomic                   Forces (Hartrees/Bohr)
 Number     Number              X              Y              Z
 -------------------------------------------------------------------
      1        6           0.000136243    0.001347157   -0.004748914
      2        8           0.001471828    0.001908778    0.006894860
      3        1          -0.000115498    0.000119351   -0.000226346
      4        1          -0.000018677    0.000543365   -0.000190566
      5        1          -0.002905152   -0.000689774   -0.002322373
      6        1           0.001905359   -0.000972466   -0.001268223
      7        1           0.000018342   -0.000767603   -0.000005588
      8        1           0.000667504    0.000813796   -0.000236431
      9        1           0.003302359   -0.005165417    0.002511420
     10        1          -0.002948022    0.004220003    0.002655743
     11        1           0.001648586    0.001273345   -0.008450961
     12        6           0.000243740   -0.000497942   -0.000678031
     13        6          -0.003188385   -0.000948782    0.002947151
     14        8          -0.000218226   -0.001183810    0.000618260
 -------------------------------------------------------------------
 Cartesian Forces:  Max     0.008450961 RMS     0.002563232

 GradGradGradGradGradGradGradGradGradGradGradGradGradGradGradGradGradGrad
 Berny optimization.
 Search for a saddle point.
 Step number   3 out of a maximum of  100
 All quantities printed in internal units (Hartrees-Bohrs-Radians)
 Swaping is turned off.
 Second derivative matrix not updated -- analytic derivatives used.
 ITU=  0  0  0
     Eigenvalues ---   -0.00628   0.00172   0.00263   0.00357   0.00375
     Eigenvalues ---    0.00910   0.01150   0.01365   0.01564   0.02008
     Eigenvalues ---    0.02915   0.03914   0.04383   0.04941   0.06148
     Eigenvalues ---    0.07190   0.09582   0.09805   0.10893   0.13779
     Eigenvalues ---    0.15057   0.16080   0.17211   0.19299   0.26167
     Eigenvalues ---    0.37294   0.47296   0.60280   0.70909   0.75344
     Eigenvalues ---    0.83091   0.84989   0.96500   1.01527   1.06105
     Eigenvalues ---    1.07468
 Eigenvectors required to have negative eigenvalues:
                          Z5        Z1        Z6        Z2        X11
   1                    0.43609  -0.42287   0.37901   0.30151   0.22786
                          X14       X8        Z13       Y2        Z7
   1                   -0.21525  -0.19126  -0.18988   0.17094  -0.15363
 RFO step:  Lambda0=1.131994401D-03 Lambda=-1.05074932D-03.
 Linear search not attempted -- option 19 set.
 Maximum step size (   0.300) exceeded in Quadratic search.
    -- Step size scaled by   0.665
 TrRot=  0.002953 -0.003148  0.002906 -1.661324  0.002431  1.660750
 Variable       Old X    -DE/DX   Delta X   Delta X   Delta X     New X
                                 (Linear)    (Quad)   (Total)
    X1       -0.05277   0.00014   0.00000  -0.03871  -0.03576  -0.08853
    Y1        0.03789   0.00135   0.00000   0.01923   0.01568   0.05358
    Z1        0.11144  -0.00475   0.00000   0.07327   0.07629   0.18773
    X2        0.01988   0.00147   0.00000   0.01659   0.01845   0.03833
    Y2       -0.18552   0.00191   0.00000  -0.06474  -0.07838  -0.26390
    Z2        4.37876   0.00689   0.00000  -0.05423  -0.05194   4.32682
    X3        4.08742  -0.00012   0.00000  -0.04409  -0.04115   4.04627
    Y3        0.08080   0.00012   0.00000   0.05960   0.05308   0.13388
    Z3        0.40761  -0.00023   0.00000   0.02424   0.02837   0.43597
    X4        2.74370  -0.00002   0.00000  -0.01773  -0.01639   2.72731
    Y4       -2.97766   0.00054   0.00000   0.05143   0.04742  -2.93024
    Z4       -0.35604  -0.00019   0.00000   0.06751   0.06393  -0.29211
    X5        1.50503  -0.00291   0.00000   0.04801   0.04983   1.55486
    Y5        0.06060  -0.00069   0.00000   0.00568  -0.01122   0.04939
    Z5        5.43311  -0.00232   0.00000  -0.12217  -0.11878   5.31433
    X6       -1.39432   0.00191   0.00000   0.03821   0.04028  -1.35405
    Y6        0.48543  -0.00097   0.00000  -0.01134  -0.02648   0.45895
    Z6        5.33862  -0.00127   0.00000  -0.06441  -0.06067   5.27794
    X7       -0.20579   0.00002   0.00000  -0.05895  -0.05489  -0.26068
    Y7        2.06608  -0.00077   0.00000   0.02644   0.02243   2.08851
    Z7        0.40116  -0.00001   0.00000   0.01523   0.02314   0.42430
    X8        2.73329   0.00067   0.00000   0.09885   0.10335   2.83664
    Y8        1.41959   0.00081   0.00000  -0.04736  -0.04372   1.37586
    Z8       -3.44036  -0.00024   0.00000  -0.03498  -0.02812  -3.46848
    X9       -3.79490   0.00330   0.00000  -0.01317  -0.01011  -3.80501
    Y9       -0.30813  -0.00517   0.00000  -0.01317  -0.01093  -0.31906
    Z9       -1.33910   0.00251   0.00000   0.01944   0.02074  -1.31837
   X10       -1.91105  -0.00295   0.00000  -0.01382  -0.01238  -1.92343
   Y10       -3.18792   0.00422   0.00000   0.02123   0.02260  -3.16532
   Z10       -1.44937   0.00266   0.00000   0.04259   0.03741  -1.41195
   X11       -3.11660   0.00165   0.00000  -0.07372  -0.07227  -3.18887
   Y11       -2.03716   0.00127   0.00000  -0.01118  -0.01608  -2.05324
   Z11        1.49484  -0.00845   0.00000  -0.00833  -0.01109   1.48375
   X12        2.50147   0.00024   0.00000  -0.02799  -0.02545   2.47602
   Y12       -0.93403  -0.00050   0.00000   0.04858   0.04504  -0.88899
   Z12       -0.42516  -0.00068   0.00000   0.00247   0.00377  -0.42139
   X13       -2.35296  -0.00319   0.00000  -0.02420  -0.02201  -2.37497
   Y13       -1.46277  -0.00095   0.00000   0.00922   0.00826  -1.45451
   Z13       -0.37624   0.00295   0.00000   0.03759   0.03646  -0.33979
   X14        1.92194  -0.00022   0.00000   0.07501   0.07851   2.00046
   Y14       -0.17003  -0.00118   0.00000  -0.03072  -0.02769  -0.19773
   Z14       -3.00054   0.00062   0.00000  -0.02238  -0.01951  -3.02005
         Item               Value     Threshold  Converged?
 Maximum Force            0.008451     0.000450     NO 
 RMS     Force            0.002563     0.000300     NO 
 Maximum Displacement     0.118776     0.001800     NO 
 RMS     Displacement     0.045983     0.001200     NO 
 Predicted change in Energy= 7.195478D-05
 GradGradGradGradGradGradGradGradGradGradGradGradGradGradGradGradGradGrad

                          Input orientation:                          
 ---------------------------------------------------------------------
 Center     Atomic      Atomic             Coordinates (Angstroms)
 Number     Number       Type             X           Y           Z
 ---------------------------------------------------------------------
      1          6           0       -0.046847    0.028352    0.099341
      2          8           0        0.020283   -0.139650    2.289657
      3          1           0        2.141193    0.070846    0.230707
      4          1           0        1.443228   -1.550615   -0.154577
      5          1           0        0.822796    0.026134    2.812222
      6          1           0       -0.716530    0.242868    2.792968
      7          1           0       -0.137943    1.105189    0.224530
      8          1           0        1.501085    0.728074   -1.835442
      9          1           0       -2.013526   -0.168839   -0.697649
     10          1           0       -1.017836   -1.675016   -0.747173
     11          1           0       -1.687479   -1.086528    0.785167
     12          6           0        1.310251   -0.470433   -0.222989
     13          6           0       -1.256779   -0.769692   -0.179808
     14          8           0        1.058596   -0.104634   -1.598144
 ---------------------------------------------------------------------
                    Distance matrix (angstroms):
                    1          2          3          4          5
     1  C    0.000000
     2  O    2.197775   0.000000
     3  H    2.192392   2.963418   0.000000
     4  H    2.185849   3.160677   1.806858   0.000000
     5  H    2.848861   0.971898   2.899033   3.416573   0.000000
     6  H    2.783903   0.970842   3.842051   4.070523   1.554628
     7  H    1.087910   2.416487   2.502872   3.114021   2.963703
     8  H    2.574702   4.467903   2.260676   2.832151   4.749061
     9  H    2.131175   3.614033   4.263917   3.762098   4.516850
    10  H    2.135619   3.557720   3.739485   2.534459   4.353289
    11  H    2.098806   2.465060   4.038028   3.301488   3.412982
    12  C    1.481351   2.843735   1.090545   1.090485   3.113953
    13  C    1.476054   2.850631   3.524378   2.810786   3.729640
    14  O    2.030061   4.024216   2.132487   2.079107   4.418601
                    6          7          8          9         10
     6  H    0.000000
     7  H    2.770421   0.000000
     8  H    5.155135   2.659344   0.000000
     9  H    3.746480   2.447728   3.801515   0.000000
    10  H    4.037531   3.073753   3.647483   1.806217   0.000000
    11  H    2.596401   2.742079   4.508582   1.774036   1.772795
    12  C    3.703058   2.186350   2.018128   3.371018   2.673159
    13  C    3.186619   2.220464   3.548272   1.096289   1.094809
    14  O    4.749073   2.493495   0.972373   3.202023   2.738946
                   11         12         13         14
    11  H    0.000000
    12  C    3.222164   0.000000
    13  C    1.103206   2.584776   0.000000
    14  O    3.766326   1.445056   2.795521   0.000000
 Symmetry turned off by external request.
 Stoichiometry    C3H9O2(1+)
 Framework group  C1[X(C3H9O2)]
 Deg. of freedom    36
 Full point group                 C1      NOp   1
 Rotational constants (GHZ):      6.8949607      3.0192398      2.3056169
 Standard basis: 6-31++G(d,p) (6D, 7F)
 The following finite field(s) will be applied:
 An electric field of              0.0000  0.0000  0.0025
 Integral buffers will be    131072 words long.
 Raffenetti 2 integral format.
 Two-electron integral symmetry is turned off.
   149 basis functions,   232 primitive gaussians,   149 cartesian basis functions
    21 alpha electrons       21 beta electrons
       nuclear repulsion energy       193.2918923966 Hartrees.
 NAtoms=   14 NActive=   14 NUniq=   14 SFac= 1.00D+00 NAtFMM=   50 NAOKFM=F Big=F
 One-electron integrals computed using PRISM.
 PrsmSu:  requested number of processors reduced to:  10 ShMem   1 Linda.
 NBasis=   149 RedAO= T  NBF=   149
 NBsUse=   149 1.00D-06 NBFU=   149
 The nuclear repulsion energy is now       193.3255395629 hartrees.
 Initial guess read from the read-write file.
 B after Tr=     0.000000    0.000000    0.000000
         Rot=    1.000000    0.000000    0.000000    0.000000 Ang=   0.00 deg.
 Harris functional with IExCor=  402 diagonalized for initial guess.
 ExpMin= 3.60D-02 ExpMax= 5.48D+03 ExpMxC= 8.25D+02 IAcc=3 IRadAn=         0 AccDes= 0.00D+00
 HarFok:  IExCor=  402 AccDes= 0.00D+00 IRadAn=         0 IDoV= 1
 ScaDFX=  1.000000  1.000000  1.000000  1.000000
 FoFCou: FMM=F IPFlag=           0 FMFlag=      100000 FMFlg1=           0
         NFxFlg=           0 DoJE=T BraDBF=F KetDBF=T FulRan=T
         Omega=  0.000000  0.000000  1.000000  0.000000  0.000000 ICntrl=     500 IOpCl=  0
         NMat0=    1 NMatS0=    1 NMatT0=    0 NMatD0=    1 NMtDS0=    0 NMtDT0=    0
         I1Cent=           4 NGrid=           0.
 Symmetry not used in FoFCou.
 Requested convergence on RMS density matrix=1.00D-08 within 128 cycles.
 Requested convergence on MAX density matrix=1.00D-06.
 Requested convergence on             energy=1.00D-06.
 No special actions if energy rises.
 SCF Done:  E(RB3LYP) =  -269.886319379     A.U. after   11 cycles
             Convg  =    0.6852D-08             -V/T =  2.0096
 Range of M.O.s used for correlation:     1   149
 NBasis=   149 NAE=    21 NBE=    21 NFC=     0 NFV=     0
 NROrb=    149 NOA=    21 NOB=    21 NVA=   128 NVB=   128

 **** Warning!!: The largest alpha MO coefficient is  0.47427811D+02

 PrsmSu:  requested number of processors reduced to:  10 ShMem   1 Linda.
 PrsmSu:  requested number of processors reduced to:  17 ShMem   1 Linda.
 Symmetrizing basis deriv contribution to polar:
 IMax=3 JMax=2 DiffMx= 0.00D+00
 G2DrvN: will do     3 centers at a time, making    5 passes doing MaxLOS=2.
 Estimated number of processors is:   15
 Calling FoFCou, ICntrl=  3107 FMM=F I1Cent=   0 AccDes= 0.00D+00.
 CoulSu:  requested number of processors reduced to:  15 ShMem   1 Linda.
 Calling FoFCou, ICntrl=  3107 FMM=F I1Cent=   0 AccDes= 0.00D+00.
 CoulSu:  requested number of processors reduced to:  15 ShMem   1 Linda.
 Calling FoFCou, ICntrl=  3107 FMM=F I1Cent=   0 AccDes= 0.00D+00.
 CoulSu:  requested number of processors reduced to:  15 ShMem   1 Linda.
 Calling FoFCou, ICntrl=  3107 FMM=F I1Cent=   0 AccDes= 0.00D+00.
 CoulSu:  requested number of processors reduced to:  15 ShMem   1 Linda.
 Calling FoFCou, ICntrl=  3107 FMM=F I1Cent=   0 AccDes= 0.00D+00.
 CoulSu:  requested number of processors reduced to:  15 ShMem   1 Linda.
 FoFDir/FoFCou used for L=0 through L=2.
 End of G2Drv Frequency-dependent properties file   721 does not exist.
 End of G2Drv Frequency-dependent properties file   722 does not exist.
          IDoAtm=11111111111111
          Differentiating once with respect to electric field.
                with respect to dipole field.
          Differentiating once with respect to nuclear coordinates.
 PrRfSu:  requested number of processors reduced to:  16 ShMem   1 Linda.
 CalDSu:  requested number of processors reduced to:  21 ShMem   1 Linda.
 PrRfSu:  requested number of processors reduced to:  16 ShMem   1 Linda.
 CalDSu:  requested number of processors reduced to:  21 ShMem   1 Linda.
          There are    45 degrees of freedom in the 1st order CPHF.  IDoFFX=5.
     45 vectors produced by pass  0 Test12= 5.97D-15 2.22D-09 XBig12= 5.15D+01 4.75D+00.
 AX will form    23 AO Fock derivatives at one time.
 PrRfSu:  requested number of processors reduced to:  16 ShMem   1 Linda.
 CalDSu:  requested number of processors reduced to:  21 ShMem   1 Linda.
 PrRfSu:  requested number of processors reduced to:  16 ShMem   1 Linda.
 CalDSu:  requested number of processors reduced to:  21 ShMem   1 Linda.
     42 vectors produced by pass  1 Test12= 5.97D-15 2.22D-09 XBig12= 8.12D+00 4.49D-01.
 PrRfSu:  requested number of processors reduced to:  16 ShMem   1 Linda.
 CalDSu:  requested number of processors reduced to:  22 ShMem   1 Linda.
 PrRfSu:  requested number of processors reduced to:  16 ShMem   1 Linda.
 CalDSu:  requested number of processors reduced to:  22 ShMem   1 Linda.
     42 vectors produced by pass  2 Test12= 5.97D-15 2.22D-09 XBig12= 3.62D-02 2.93D-02.
 PrRfSu:  requested number of processors reduced to:  16 ShMem   1 Linda.
 CalDSu:  requested number of processors reduced to:  22 ShMem   1 Linda.
 PrRfSu:  requested number of processors reduced to:  16 ShMem   1 Linda.
 CalDSu:  requested number of processors reduced to:  22 ShMem   1 Linda.
     42 vectors produced by pass  3 Test12= 5.97D-15 2.22D-09 XBig12= 9.31D-05 1.39D-03.
 PrRfSu:  requested number of processors reduced to:  16 ShMem   1 Linda.
 CalDSu:  requested number of processors reduced to:  22 ShMem   1 Linda.
 PrRfSu:  requested number of processors reduced to:  16 ShMem   1 Linda.
 CalDSu:  requested number of processors reduced to:  22 ShMem   1 Linda.
     42 vectors produced by pass  4 Test12= 5.97D-15 2.22D-09 XBig12= 9.36D-08 3.67D-05.
 PrRfSu:  requested number of processors reduced to:  16 ShMem   1 Linda.
 CalDSu:  requested number of processors reduced to:  22 ShMem   1 Linda.
 PrRfSu:  requested number of processors reduced to:  16 ShMem   1 Linda.
 CalDSu:  requested number of processors reduced to:  22 ShMem   1 Linda.
     28 vectors produced by pass  5 Test12= 5.97D-15 2.22D-09 XBig12= 5.94D-11 9.70D-07.
 PrRfSu:  requested number of processors reduced to:  16 ShMem   1 Linda.
 CalDSu:  requested number of processors reduced to:  20 ShMem   1 Linda.
      3 vectors produced by pass  6 Test12= 5.97D-15 2.22D-09 XBig12= 4.27D-14 2.12D-08.
 Inverted reduced A of dimension   244 with in-core refinement.
 Isotropic polarizability for W=    0.000000       48.49 Bohr**3.
 End of Minotr Frequency-dependent properties file   721 does not exist.
 End of Minotr Frequency-dependent properties file   722 does not exist.
 PrsmSu:  requested number of processors reduced to:  10 ShMem   1 Linda.
 PrsmSu:  requested number of processors reduced to:  10 ShMem   1 Linda.
 Calling FoFJK, ICntrl=    100127 FMM=F ISym2X=0 I1Cent= 0 IOpClX= 0 NMat=1 NMatS=1 NMatT=0.
 CoulSu:  requested number of processors reduced to:  10 ShMem   1 Linda.
 CalDSu:  requested number of processors reduced to:  23 ShMem   1 Linda.
 -------------------------------------------------------------------
 Center     Atomic                   Forces (Hartrees/Bohr)
 Number     Number              X              Y              Z
 -------------------------------------------------------------------
      1        6           0.000298631    0.000962912   -0.002396659
      2        8           0.001319162    0.001134251    0.002978229
      3        1          -0.000108808    0.000128395   -0.000259014
      4        1          -0.000071293    0.000500294   -0.000227610
      5        1          -0.001910121   -0.000390012   -0.001637629
      6        1           0.000892169   -0.000426993   -0.000629678
      7        1          -0.000076699   -0.000595102    0.000144980
      8        1           0.000196365    0.000119891   -0.000103989
      9        1           0.001117618   -0.001753243    0.000651602
     10        1          -0.000995805    0.001375457    0.000777705
     11        1           0.000509145    0.000482257   -0.003225385
     12        6           0.000196347   -0.000522652   -0.000709163
     13        6          -0.001289205   -0.000493066    0.001418196
     14        8          -0.000077506   -0.000522392    0.000718414
 -------------------------------------------------------------------
 Cartesian Forces:  Max     0.003225385 RMS     0.001112895

 GradGradGradGradGradGradGradGradGradGradGradGradGradGradGradGradGradGrad
 Berny optimization.
 Search for a saddle point.
 Step number   4 out of a maximum of  100
 All quantities printed in internal units (Hartrees-Bohrs-Radians)
 Swaping is turned off.
 Second derivative matrix not updated -- analytic derivatives used.
 ITU=  0  0  0  0
     Eigenvalues ---   -0.00705   0.00043   0.00115   0.00312   0.00376
     Eigenvalues ---    0.00796   0.01124   0.01344   0.01771   0.02192
     Eigenvalues ---    0.02924   0.03812   0.04504   0.04912   0.06143
     Eigenvalues ---    0.07187   0.09482   0.09702   0.10885   0.13659
     Eigenvalues ---    0.15667   0.16145   0.17060   0.19312   0.26462
     Eigenvalues ---    0.38125   0.48937   0.61432   0.72890   0.76727
     Eigenvalues ---    0.82684   0.84791   0.95143   1.00391   1.06558
     Eigenvalues ---    1.08107
 Eigenvectors required to have negative eigenvalues:
                          Z5        Z1        Z6        Z2        X11
   1                    0.46675  -0.41985   0.40667   0.33640   0.24469
                          Z13       Z7        X14       X8        Y2
   1                   -0.19194  -0.18820  -0.16391  -0.14735   0.13937
 RFO step:  Lambda0=1.696854864D-04 Lambda=-2.16473648D-04.
 Linear search not attempted -- option 19 set.
 Maximum step size (   0.300) exceeded in Quadratic search.
    -- Step size scaled by   0.957
 TrRot=  0.001001 -0.001776  0.003362 -1.232735  0.002470  1.232853
 Variable       Old X    -DE/DX   Delta X   Delta X   Delta X     New X
                                 (Linear)    (Quad)   (Total)
    X1       -0.08853   0.00030   0.00000  -0.02050  -0.01932  -0.10785
    Y1        0.05358   0.00096   0.00000   0.00743   0.00511   0.05868
    Z1        0.18773  -0.00240   0.00000   0.04037   0.04396   0.23169
    X2        0.03833   0.00132   0.00000   0.02606   0.03062   0.06895
[...]
      2        8           0.000007739    0.000109188   -0.000312512
      3        1          -0.000000624    0.000003507   -0.000121321
      4        1           0.000002019   -0.000004853   -0.000093632
      5        1          -0.000002443    0.000029553   -0.000139002
      6        1           0.000009754    0.000051706   -0.000106776
      7        1          -0.000002809   -0.000000684   -0.000136614
      8        1          -0.000005049   -0.000031984   -0.000132377
      9        1          -0.000001505   -0.000026103   -0.000108135
     10        1           0.000002561   -0.000007559   -0.000086640
     11        1           0.000000822    0.000001796   -0.000109265
     12        6          -0.000000689   -0.000013633   -0.000273391
     13        6           0.000000781   -0.000021498   -0.000256146
     14        8          -0.000008264   -0.000081682   -0.000333942
 -------------------------------------------------------------------
 Cartesian Forces:  Max     0.000333942 RMS     0.000117539

 GradGradGradGradGradGradGradGradGradGradGradGradGradGradGradGradGradGrad
 Berny optimization.
 Search for a saddle point.
 Step number   1 out of a maximum of    2
 All quantities printed in internal units (Hartrees-Bohrs-Radians)
 Swaping is turned off.
 Second derivative matrix not updated -- analytic derivatives used.
 ITU=  0
     Eigenvalues ---   -0.00778   0.00039   0.00101   0.00206   0.00253
     Eigenvalues ---    0.00722   0.00762   0.01078   0.01096   0.01385
     Eigenvalues ---    0.02633   0.04067   0.04373   0.04754   0.05925
     Eigenvalues ---    0.07243   0.09503   0.09652   0.10428   0.13866
     Eigenvalues ---    0.15366   0.16061   0.17116   0.19518   0.26425
     Eigenvalues ---    0.37853   0.47999   0.62594   0.72935   0.77418
     Eigenvalues ---    0.84401   0.87073   0.97620   0.99802   1.05821
     Eigenvalues ---    1.10259
 Eigenvectors required to have negative eigenvalues:
                          Z1        Z5        Z6        Z2        X11
   1                    0.42818  -0.35076  -0.30827  -0.27636  -0.25953
                          Z7        X8        X9        Z13       X14
   1                    0.25877   0.25652   0.25559   0.22468   0.21574
 Angle between quadratic step and forces=  89.83 degrees.
 Linear search not attempted -- option 19 set.
 TrRot=  0.000004  0.000003  0.000001 -0.000001  0.000001 -0.000001
 Variable       Old X    -DE/DX   Delta X   Delta X   Delta X     New X
                                 (Linear)    (Quad)   (Total)
    X1       -0.05233   0.00000   0.00000   0.00000   0.00000  -0.05233
    Y1        0.11608  -0.00001   0.00000  -0.00001   0.00000   0.11608
    Z1        0.08757  -0.00029   0.00000   0.00000   0.00000   0.08758
    X2        0.40071   0.00001   0.00000   0.00003   0.00004   0.40075
    Y2       -0.28914   0.00011   0.00000   0.00004   0.00004  -0.28910
    Z2        4.42471  -0.00031   0.00000   0.00000   0.00000   4.42472
    X3        4.07997   0.00000   0.00000   0.00000   0.00000   4.07996
    Y3        0.05845   0.00000   0.00000  -0.00003  -0.00003   0.05842
    Z3        0.32817  -0.00012   0.00000   0.00001   0.00001   0.32818
    X4        2.65924   0.00000   0.00000  -0.00002  -0.00002   2.65922
    Y4       -2.95831   0.00000   0.00000  -0.00002  -0.00002  -2.95833
    Z4       -0.43877  -0.00009   0.00000   0.00000   0.00000  -0.43877
    X5        0.70971   0.00000   0.00000  -0.00033  -0.00032   0.70939
    Y5        1.09698   0.00003   0.00000   0.00007   0.00007   1.09706
    Z5        5.57778  -0.00014   0.00000   0.00000   0.00000   5.57779
    X6       -0.44995   0.00001   0.00000   0.00030   0.00031  -0.44965
    Y6       -1.58968   0.00005   0.00000  -0.00013  -0.00012  -1.58981
    Z6        5.39017  -0.00011   0.00000  -0.00002  -0.00002   5.39015
    X7       -0.16137   0.00000   0.00000   0.00002   0.00002  -0.16134
    Y7        2.14784   0.00000   0.00000   0.00000   0.00000   2.14784
    Z7        0.37710  -0.00014   0.00000   0.00001   0.00001   0.37710
    X8        2.76347  -0.00001   0.00000   0.00002   0.00002   2.76349
    Y8        1.42414  -0.00003   0.00000  -0.00002  -0.00002   1.42412
    Z8       -3.52287  -0.00013   0.00000   0.00001   0.00001  -3.52286
    X9       -3.19965   0.00000   0.00000  -0.00003  -0.00003  -3.19968
    Y9       -0.79252  -0.00003   0.00000   0.00007   0.00008  -0.79243
    Z9       -2.12890  -0.00011   0.00000   0.00002   0.00002  -2.12888
   X10       -2.17029   0.00000   0.00000  -0.00003  -0.00003  -2.17032
   Y10       -3.33916  -0.00001   0.00000   0.00001   0.00002  -3.33913
   Z10       -0.18596  -0.00009   0.00000  -0.00006  -0.00006  -0.18602
   X11       -3.82645   0.00000   0.00000   0.00001   0.00001  -3.82644
   Y11       -0.65252   0.00000   0.00000  -0.00001   0.00000  -0.65252
   Z11        1.11081  -0.00011   0.00000   0.00003   0.00003   1.11084
   X12        2.46685   0.00000   0.00000  -0.00001   0.00000   2.46685
   Y12       -0.91090  -0.00001   0.00000  -0.00002  -0.00002  -0.91092
   Z12       -0.50285  -0.00027   0.00000   0.00000   0.00000  -0.50285
   X13       -2.42352   0.00000   0.00000  -0.00001  -0.00001  -2.42353
   Y13       -1.29397  -0.00002   0.00000   0.00002   0.00002  -1.29394
   Z13       -0.26658  -0.00026   0.00000  -0.00001  -0.00001  -0.26658
   X14        1.88796  -0.00001   0.00000   0.00001   0.00001   1.88797
   Y14       -0.13012  -0.00008   0.00000  -0.00002  -0.00002  -0.13014
   Z14       -3.07168  -0.00033   0.00000   0.00000   0.00000  -3.07168
         Item               Value     Threshold  Converged?
 Maximum Force            0.000334     0.000450     YES
 RMS     Force            0.000118     0.000300     YES
 Maximum Displacement     0.000323     0.001800     YES
 RMS     Displacement     0.000076     0.001200     YES
 Predicted change in Energy= 3.804455D-10
 Optimization completed.
    -- Stationary point found.
 GradGradGradGradGradGradGradGradGradGradGradGradGradGradGradGradGradGrad

 1\1\GINC-C63N10\Freq\RB3LYP\6-31++G(d,p)\C3H9O2(1+)\ROOT\06-Mar-2018\0
 \\#N Geom=AllCheck Guess=TCheck SCRF=Check GenChk RB3LYP/6-31++G(d,p) 
 Freq\\Title Card Required\\1,1\C,-0.0276936104,0.0614268748,0.04634132
 89\O,0.2120466237,-0.1530077833,2.3414572522\H,2.1590245093,0.03092959
 85,0.173658621\H,1.4072080579,-1.5654687069,-0.2321851385\H,0.37556310
 89,0.5804983348,2.9516355237\H,-0.2381041705,-0.8412225679,2.852353927
 4\H,-0.0853925983,1.1365865867,0.1995503879\H,1.4623669063,0.753623722
 ,-1.8642208132\H,-1.6931837759,-0.4193811594,-1.1265653535\H,-1.148469
 9789,-1.7670049974,-0.0984055968\H,-2.0248691104,-0.3452977429,0.58781
 78334\C,1.3054012418,-0.4820258714,-0.2660965584\C,-1.282471085,-0.684
 7391234,-0.1410671995\O,0.9990648814,-0.0688591641,-1.6254632147\\Vers
 ion=EM64L-G09RevB.01\HF=-269.8886141\RMSD=1.266e-09\RMSF=1.175e-04\Zer
 oPoint=0.1201157\Thermal=0.1282432\Dipole=0.0190474,0.6439821,0.630295
 6\DipoleDeriv=0.8741252,0.1380589,-0.1653249,0.2724619,0.291252,-0.079
 6692,-0.3507293,-0.0149213,1.4292548,-0.5816404,0.0388178,-0.0330967,0
 .0238562,-0.4872187,0.0094808,-0.03885,0.0031468,-0.84953,0.0433339,-0
 .0202205,-0.0337362,-0.0456523,0.0570473,-0.0154384,-0.0279637,0.01120
 79,0.0538316,0.0862427,-0.0255412,-0.0116099,0.0057618,0.0238478,0.022
 4701,-0.009947,0.0008203,0.074036,0.3517355,-0.0090291,0.0258992,-0.00
 57586,0.3131785,0.074459,0.017311,-0.0061626,0.2167475,0.3287501,-0.03
 19014,-0.0135569,-0.0240253,0.3180873,-0.0568506,0.0246719,-0.0108315,
 0.222935,0.0438034,-0.0249122,0.0204073,-0.0264756,0.0476144,0.0004289
 ,0.0085099,-0.0064003,0.0202037,0.315695,-0.014002,-0.0569401,0.072289
 8,0.309477,-0.1767734,-0.0560448,-0.0560193,0.3355441,0.1706327,0.0009
 03,0.0373369,-0.0831406,0.0985342,0.0377469,0.0447059,0.0436409,0.1055
 95,0.053485,0.0531954,0.0008346,0.0073076,0.0064582,0.0134652,0.029858
 3,0.0225982,0.110165,0.1366544,0.0117023,0.0373194,-0.0597703,0.058387
 7,-0.0501936,0.0747333,-0.0254246,0.07408,0.302764,-0.0161305,-0.11309
 98,-0.132501,0.276345,0.015419,0.1883348,-0.1158839,0.3480343,-0.48610
 12,-0.1093577,-0.0944283,-0.0258298,0.0189864,-0.0207083,-0.213247,-0.
 0469705,-0.1316566,-0.6394804,0.0084172,0.3999955,0.0214765,-0.3319969
 ,0.2261637,0.3086568,0.2011998,-1.0092405\Polar=49.0192316,2.111233,39
 .800851,-4.270297,-0.6185216,54.2619713\PG=C01 [X(C3H9O2)]\NImag=1\\0.
 55612822,-0.01345867,0.65045350,0.00226777,0.08922688,0.13070454,-0.00
 592415,-0.00329172,-0.00021542,0.14127924,-0.00110745,-0.01295856,0.00
 236479,0.24944532,0.59168091,0.00260674,0.00128055,0.01180198,-0.08042
 039,0.05286479,0.43554604,-0.02007201,-0.01634897,-0.00892813,0.000782
 78,0.00063656,-0.00027426,0.23692129,0.01109874,0.00640635,0.00414526,
 0.00032517,-0.00019404,0.00009406,0.11329862,0.12390285,0.01246899,0.0
 1182896,0.00450867,-0.00026914,-0.00021661,0.00012950,0.09526892,0.054
 87850,0.10015981,-0.00220258,0.03155037,0.00214262,-0.00015296,-0.0003
 6446,-0.00009610,0.00551190,-0.02376572,0.00106490,0.05609135,0.000242
 47,-0.00729268,-0.00036038,-0.00001680,0.00053504,-0.00015368,0.002352
 68,-0.00921936,0.00002347,-0.02671016,0.35275079,0.00053934,-0.0156572
 8,-0.00119715,-0.00006590,0.00073754,0.00039430,0.00198108,-0.01150077
 ,0.00374935,0.00238044,-0.00809728,0.05511352,-0.00094690,0.00001456,-
 0.00048934,-0.02249428,-0.06705497,-0.02886375,-0.00016643,0.00001018,
 0.00032002,-0.00003245,-0.00008883,-0.00009828,0.02655271,-0.00030300,
 0.00242771,-0.00823191,-0.08235302,-0.30927328,-0.20033764,-0.00007245
 ,0.00015624,-0.00001318,-0.00001046,-0.00005102,-0.00013041,0.08399071
 ,0.32883520,0.00146640,-0.00347071,0.00485649,-0.05206564,-0.25090150,
 -0.23808695,0.00030863,-0.00008551,-0.00015519,-0.00002497,0.00000505,
 0.00016664,0.04434091,0.22958820,0.22524072,0.00140747,0.00249934,0.00
 475778,-0.11343758,-0.17914370,0.11148079,0.00006585,-0.00007188,0.000
 07481,0.00007591,0.00010539,0.00017540,-0.00307408,-0.00211705,0.00753
 388,0.11606613,0.00106908,0.00001698,0.00554254,-0.16419512,-0.2737962
 7,0.14579622,-0.00017213,-0.00003363,0.00003341,0.00011114,-0.00006088
 ,-0.00019072,-0.01685562,-0.02161486,0.02346008,0.18006315,0.29483438,
 0.00372987,0.00242745,0.00481172,0.13391638,0.19612540,-0.18252554,-0.
 00017467,0.00000149,0.00012022,0.00022854,-0.00019526,-0.00016363,-0.0
 1478614,-0.02581506,0.01281115,-0.12127495,-0.17201146,0.16914980,-0.0
 5784175,0.01161719,0.00586505,-0.00058458,-0.00031893,0.00012134,0.001
 26949,-0.00016860,-0.00080673,-0.00409415,0.00037948,0.00274811,0.0003
 8888,0.00008205,-0.00024336,-0.00004279,-0.00002573,0.00015714,0.05985
 264,0.01547541,-0.34700478,-0.04694438,0.00010587,0.00153936,-0.000592
 84,-0.00005788,0.00092516,-0.00020068,0.00120950,0.00094189,-0.0003648
 6,0.00014450,0.00002431,0.00046045,-0.00023511,-0.00004519,-0.00037952
 ,-0.01424598,0.35533011,-0.00395097,-0.03880399,-0.04652298,0.00060496
 ,0.00384683,-0.00509057,0.00047543,-0.00009610,0.00002420,-0.00060973,
 0.00051362,0.00038403,-0.00024355,0.00082942,-0.00085073,-0.00099717,-
 0.00027379,-0.00099126,-0.00506394,0.04823286,0.04116166,-0.00137067,-
 0.00642372,-0.00253769,0.00005517,0.00026879,-0.00024345,0.00136274,0.
 00058332,-0.00116770,-0.00041755,0.00164033,-0.00458553,0.00011614,-0.
 00002293,0.00011150,-0.00007190,-0.00000846,-0.00001077,-0.00001281,0.
 00078662,-0.00005680,0.12843240,-0.00571510,0.00373949,0.00726744,0.00
 008966,-0.00021668,-0.00173739,-0.00001656,0.00269580,-0.00154890,0.00
 011541,0.00032718,0.00292596,0.00009055,0.00041127,-0.00025495,-0.0001
 0630,-0.00022239,-0.00017637,0.00039718,0.00018937,-0.00010241,0.19802
 916,0.36261470,-0.00222629,0.00691257,-0.00369384,-0.00018298,-0.00074
 974,-0.00002160,-0.00122459,0.00003758,0.00260420,0.00058147,-0.000486
 34,-0.00379726,0.00013527,0.00011347,-0.00029489,0.00003865,0.00005622
 ,0.00000772,0.00097561,-0.00072666,0.00038291,-0.04487062,-0.10339292,
 0.07235807,-0.01942367,0.00790405,-0.02547100,0.00033637,-0.00034910,0
 .00096790,-0.00058141,0.00008484,0.00027015,0.00011778,-0.00001963,-0.
 00002827,-0.00000322,0.00006491,0.00001337,-0.00015756,0.00001206,-0.0
 0005393,0.00034456,-0.00047807,0.00117353,-0.00020774,0.00039898,0.000
 48017,0.08295645,-0.00098231,0.00492239,-0.01593625,-0.00051139,-0.000
 23501,-0.00144892,-0.00009729,0.00016365,-0.00013105,-0.00018919,0.000
 03406,0.00009098,-0.00017126,0.00039355,-0.00026375,-0.00029247,-0.000
 34485,-0.00031613,0.00023886,-0.00008284,0.00186349,-0.00041923,0.0005
 6172,-0.00008949,-0.02332353,0.05890231,-0.00329038,-0.00206512,-0.003
 86739,-0.00035117,-0.00033544,0.00041111,0.00001704,-0.00000691,0.0001
 4167,0.00007819,-0.00005082,0.00004513,-0.00014299,0.00010063,0.000078
 12,0.00020508,-0.00001627,0.00024814,-0.00053683,-0.00041617,0.0011521
 5,0.00064754,-0.00059774,-0.00014474,0.09849082,-0.06217894,0.27366985
 ,0.00382158,-0.03448945,0.00064789,0.00024140,0.00041400,0.00018789,0.
 00022281,0.00023600,-0.00025868,-0.00035643,0.00078410,0.00000217,-0.0
 0008482,-0.00004960,0.00010932,0.00005876,0.00001558,-0.00021943,-0.00
 460381,-0.00195239,-0.00146017,-0.00003849,0.00014417,0.00000243,-0.00
 180152,0.01206951,0.00111911,0.05935257,0.00055356,-0.01604047,0.00031
 483,0.00018382,0.00064411,0.00008475,0.00016271,0.00028336,-0.00020252
 ,-0.00082653,0.00030827,0.00031968,0.00004622,-0.00006888,0.00008191,-
 0.00016461,-0.00018428,-0.00042875,-0.00179953,0.00051871,0.00050172,0
 .00005169,0.00001951,-0.00004059,0.00095723,-0.00574995,-0.00060249,-0
 .03715087,0.34398799,-0.00152918,-0.00779115,-0.00097219,0.00008852,0.
 00060557,0.00039978,0.00007342,-0.00008529,0.00003833,0.00003650,0.000
 00878,0.00027463,0.00009673,-0.00010376,0.00007435,-0.00010923,-0.0003
 8677,-0.00044447,-0.00140315,-0.00093661,0.00283889,-0.00000395,-0.000
 28367,-0.00023700,-0.00281348,0.02776725,0.00054817,0.00204327,-0.0124
 5637,0.04496380,-0.02434319,0.00805465,0.02078367,0.00168248,0.0003705
 4,0.00103083,-0.00077946,0.00018461,0.00077867,0.00029673,-0.00018247,
 -0.00018923,-0.00000421,-0.00018448,-0.00001197,-0.00049775,0.00028612
 ,-0.00076721,0.00113732,0.00005137,-0.00141006,0.00002013,-0.00006554,
 -0.00017806,0.00864879,-0.00302917,-0.00811023,-0.00151360,0.00033592,
 0.00040887,0.18255143,-0.00433171,0.00648285,0.01345689,-0.00002541,-0
 .00044473,-0.00090972,-0.00036694,0.00039824,0.00018210,-0.00022509,0.
 00020188,-0.00016150,-0.00032894,0.00027488,-0.00024122,0.00018406,0.0
 0011262,0.00010106,0.00035443,0.00075865,0.00021602,-0.00039796,0.0005
 6353,0.00004259,-0.00403687,0.00144588,0.00449305,0.02016142,-0.004922
 32,-0.02078577,-0.05929995,0.07589072,-0.00802045,0.00118631,0.0028636
 8,0.00001169,-0.00033775,-0.00073802,-0.00045090,-0.00001179,0.0003775
 2,0.00008316,-0.00006079,-0.00002441,-0.00041217,0.00007785,-0.0001751
 2,-0.00063433,0.00023939,-0.00036383,0.00038043,0.00000100,0.00054301,
 0.00024053,-0.00029229,-0.00004321,0.02023711,-0.00827479,-0.01959977,
 -0.00426450,0.00117620,0.00201949,-0.13611476,0.06261050,0.17605874,-0
 .26206877,0.06964615,0.03668596,-0.00005116,-0.00122988,-0.00489812,-0
 .22713119,-0.11351750,-0.08018799,-0.05855627,0.02186552,-0.00000745,0
 .00109966,0.00101351,-0.00139573,-0.00043606,-0.00071713,-0.00095360,-
 0.00176506,-0.00123347,0.00543577,0.00513967,-0.00296421,0.01800996,0.
 00006302,0.00107406,-0.00151475,0.00259311,0.00130020,-0.00091916,-0.0
 0410770,-0.00121128,-0.00269008,0.62109068,0.07899969,-0.12306368,-0.0
 4078803,-0.00129612,-0.00127534,0.00444263,-0.10634321,-0.12846010,-0.
 05202027,0.01757173,-0.33667620,-0.00737217,0.00018184,-0.00066649,0.0
 0073203,-0.00025595,0.00109294,0.00144040,0.03097058,-0.00883474,0.001
 08131,0.01712230,-0.00801785,0.02872924,-0.00282112,-0.00164148,0.0004
 9719,-0.00141628,0.00144276,0.00106548,-0.00202930,-0.00111454,0.00005
 055,0.01787144,0.67561503,0.00441962,-0.03410746,0.00657100,0.00089284
 ,0.00004707,-0.00829509,-0.08690399,-0.05737954,-0.08861677,-0.0021591
 3,0.00273404,-0.04420899,0.00051806,0.00064679,-0.00145812,-0.00004053
 ,-0.00060182,-0.00152806,0.00363828,0.00108897,0.00079674,-0.00357280,
 -0.01037948,-0.01490259,-0.00114686,0.00029145,-0.00123280,0.00086159,
 -0.00048216,-0.00066012,-0.00177417,0.00019413,-0.00176977,0.08189991,
 0.03568707,0.33955729,-0.18273582,-0.06803250,-0.01568015,-0.00197885,
 -0.00149478,-0.00678824,-0.00142063,0.00083852,0.00201172,0.00164565,-
 0.00086149,-0.00131044,-0.00066554,0.00118436,-0.00105731,-0.00048723,
 -0.00046684,-0.00062394,0.00556982,0.00317436,0.00145436,-0.00177639,0
 .00213973,0.00041726,-0.07129201,0.01712347,-0.09031993,-0.05705901,0.
 03641920,0.00254912,-0.16457604,0.05270766,0.13001012,-0.01756607,-0.0
 1411878,-0.00058848,0.50582824,-0.08067271,-0.14739149,-0.01798372,0.0
 0099522,0.00121478,0.00075063,0.00329848,-0.00103873,-0.00191406,0.000
 84962,0.00126993,0.00058889,0.00018736,-0.00049618,0.00051838,-0.00035
 595,0.00052899,-0.00010245,-0.02638502,-0.00896254,-0.00715329,0.00030
 240,-0.00024297,-0.00001919,0.02271328,-0.05834315,0.05981022,0.041179
 58,-0.32027171,0.01297458,0.05582758,-0.07927231,-0.05678722,0.0111344
 7,0.01186870,0.00511578,-0.02665865,0.60110782,-0.01458648,-0.00388751
 ,-0.07600377,-0.00431276,-0.00445514,-0.00686036,0.00071679,-0.0000303
 8,-0.00143003,-0.00012085,0.00035655,-0.00000084,-0.00084587,0.0015191
 7,-0.00124871,-0.00027308,-0.00015485,0.00030816,-0.00248347,-0.000844
 27,0.00565438,0.00057667,0.00090906,0.00112034,-0.09467987,0.05595435,
 -0.24808493,0.00105308,0.01178058,-0.04682422,0.12799200,-0.05943475,-
 0.15782293,0.01465320,-0.00664089,0.00859719,-0.02788409,0.00314858,0.
 50790685,0.01557225,0.01075871,-0.01982902,0.00024612,-0.00007193,0.00
 518881,0.00401426,0.01086370,-0.02956792,0.00207308,0.00050939,-0.0015
 4145,-0.00068547,-0.00122255,0.00091497,0.00053083,0.00088390,0.000832
 71,0.00038224,-0.00274473,0.00464836,-0.13123068,-0.19253714,0.0280417
 1,0.00100015,-0.00149006,0.00370850,-0.00083255,-0.00006902,0.00148172
 ,0.00148507,-0.00318339,0.00162416,-0.05830386,-0.03443680,0.00395567,
 -0.01348612,-0.00241567,0.00019474,0.17923468,-0.00086801,-0.02069763,
 0.00792603,0.00054452,0.00277970,-0.00013343,0.00372639,0.00401421,-0.
 01069919,0.00068384,-0.00306891,0.03881193,-0.00016629,-0.00035247,0.0
 0037155,-0.00010894,-0.00028357,-0.00067080,-0.00109597,0.00470254,-0.
 01065568,-0.21151231,-0.36242270,0.06961324,-0.00110701,-0.00002629,0.
 00136881,0.00005423,0.00003289,0.00040774,-0.00031987,-0.00037536,0.00
 042282,-0.00303187,-0.08026901,0.05714518,-0.00195427,0.00002887,0.001
 77950,0.21515558,0.45593773,0.00610503,-0.00707951,-0.03386077,0.00236
 902,0.00040419,-0.00706459,-0.00088479,0.01003941,-0.02165150,-0.00358
 504,0.00576304,-0.01073532,0.00047110,0.00175643,-0.00095775,-0.000937
 09,-0.00149219,-0.00144012,-0.00334846,0.00162272,0.00051756,0.0554730
 8,0.10766364,-0.05333814,0.00256036,0.00267180,-0.00336472,0.00017603,
 -0.00004680,-0.00201947,-0.00243836,0.00023663,-0.00132537,-0.06411793
 ,0.03309545,-0.19284992,0.00781002,0.00105289,0.01468885,0.00034704,-0
 .15568770,0.31340128\\0.00000229,0.00000775,0.00029025,-0.00000774,-0.
 00010919,0.00031251,0.00000062,-0.00000351,0.00012132,-0.00000202,0.00
 000485,0.00009363,0.00000244,-0.00002955,0.00013900,-0.00000975,-0.000
 05171,0.00010678,0.00000281,0.00000068,0.00013661,0.00000505,0.0000319
 8,0.00013238,0.00000150,0.00002610,0.00010813,-0.00000256,0.00000756,0
 .00008664,-0.00000082,-0.00000180,0.00010927,0.00000069,0.00001363,0.0
 0027339,-0.00000078,0.00002150,0.00025615,0.00000826,0.00008168,0.0003
 3394\\\@


 SLITHERY-DITHERY
 FRIEDRICH A. KEKULE
 DREAMT ON A BUS OF THINGS
 FREUD WOULD THINK KEEN.
 MOST OF THE TIME THEY WERE
 HERPETOLOGICAL
 BITING THEIR TAILS IN THE
 SHAPE OF BENZENE.
 Job cpu time:  0 days  0 hours  9 minutes 42.8 seconds.
 File lengths (MBytes):  RWF=   1248 Int=      0 D2E=      0 Chk=     32 Scr=     32
 Normal termination of Gaussian 09 at Tue Mar  6 16:39:59 2018.
