 Entering Gaussian System, Link 0=g09
 Input=OH-mid-field-2.gjf
 Output=OH-mid-field-2.log
 Initial command:
 /share/home/zxchen/g09/l1.exe /scratch/zxchen/Gau-21011.inp -scrdir=/scratch/zxchen/
 Entering Link 1 = /share/home/zxchen/g09/l1.exe PID=     21012.
  
 Copyright (c) 1988,1990,1992,1993,1995,1998,2003,2009,2010,
            Gaussian, Inc.  All Rights Reserved.
  
 This is part of the Gaussian(R) 09 program.  It is based on
 the Gaussian(R) 03 system (copyright 2003, Gaussian, Inc.),
 the Gaussian(R) 98 system (copyright 1998, Gaussian, Inc.),
 the Gaussian(R) 94 system (copyright 1995, Gaussian, Inc.),
 the Gaussian 92(TM) system (copyright 1992, Gaussian, Inc.),
 the Gaussian 90(TM) system (copyright 1990, Gaussian, Inc.),
 the Gaussian 88(TM) system (copyright 1988, Gaussian, Inc.),
 the Gaussian 86(TM) system (copyright 1986, Carnegie Mellon
 University), and the Gaussian 82(TM) system (copyright 1983,
 Carnegie Mellon University). Gaussian is a federally registered
 trademark of Gaussian, Inc.
  
 This software contains proprietary and confidential information,
 including trade secrets, belonging to Gaussian, Inc.
  
 This software is provided under written license and may be
 used, copied, transmitted, or stored only in accord with that
 written license.
  
 The following legend is applicable only to US Government
 contracts under FAR:
  
                    RESTRICTED RIGHTS LEGEND
  
 Use, reproduction and disclosure by the US Government is
 subject to restrictions as set forth in subparagraphs (a)
 and (c) of the Commercial Computer Software - Restricted
 Rights clause in FAR 52.227-19.
  
 Gaussian, Inc.
 340 Quinnipiac St., Bldg. 40, Wallingford CT 06492
  
  
 ---------------------------------------------------------------
 Warning -- This program may not be used in any manner that
 competes with the business of Gaussian, Inc. or will provide
 assistance to any competitor of Gaussian, Inc.  The licensee
 of this program is prohibited from giving any competitor of
 Gaussian, Inc. access to this program.  By using this program,
 the user acknowledges that Gaussian, Inc. is engaged in the
 business of creating and licensing software in the field of
 computational chemistry and represents and warrants to the
 licensee that it is not a competitor of Gaussian, Inc. and that
 it will not use this program in any manner prohibited above.
 ---------------------------------------------------------------
  

 Cite this work as:
 Gaussian 09, Revision B.01,
 M. J. Frisch, G. W. Trucks, H. B. Schlegel, G. E. Scuseria, 
 M. A. Robb, J. R. Cheeseman, G. Scalmani, V. Barone, B. Mennucci, 
 G. A. Petersson, H. Nakatsuji, M. Caricato, X. Li, H. P. Hratchian, 
 A. F. Izmaylov, J. Bloino, G. Zheng, J. L. Sonnenberg, M. Hada, 
 M. Ehara, K. Toyota, R. Fukuda, J. Hasegawa, M. Ishida, T. Nakajima, 
 Y. Honda, O. Kitao, H. Nakai, T. Vreven, J. A. Montgomery, Jr., 
 J. E. Peralta, F. Ogliaro, M. Bearpark, J. J. Heyd, E. Brothers, 
 K. N. Kudin, V. N. Staroverov, T. Keith, R. Kobayashi, J. Normand, 
 K. Raghavachari, A. Rendell, J. C. Burant, S. S. Iyengar, J. Tomasi, 
 M. Cossi, N. Rega, J. M. Millam, M. Klene, J. E. Knox, J. B. Cross, 
 V. Bakken, C. Adamo, J. Jaramillo, R. Gomperts, R. E. Stratmann, 
 O. Yazyev, A. J. Austin, R. Cammi, C. Pomelli, J. W. Ochterski, 
 R. L. Martin, K. Morokuma, V. G. Zakrzewski, G. A. Voth, 
 P. Salvador, J. J. Dannenberg, S. Dapprich, A. D. Daniels, 
 O. Farkas, J. B. Foresman, J. V. Ortiz, J. Cioslowski, 
 and D. J. Fox, Gaussian, Inc., Wallingford CT, 2010.
 
 ******************************************
 Gaussian 09:  EM64L-G09RevB.01 12-Aug-2010
                26-Apr-2018 
 ******************************************
 %chk=OH-mid-t2-2.chk
 %nprocshared=24
 Will use up to   24 processors via shared memory.
 ----------------------------------------------------------------------
 # field=z+25 opt=(ts,noeigen,calcfc,z-matrix,tight) freq b3lyp/6-31++g
 (d,p)
 ----------------------------------------------------------------------
 1/5=1,7=10,10=4,11=1,14=-1,18=40,26=3,38=1/1,3;
 2/12=2,17=6,18=5,29=3,40=1/2;
 3/5=1,6=6,7=1111,11=2,14=3,15=25,16=1,25=1,30=1,71=2,74=-5/1,2,3;
 4//1;
 5/5=2,38=5/2;
 8/6=4,10=90,11=11/1;
 11/6=1,8=1,9=11,15=111,16=1/1,2,10;
 10/6=1,7=6,13=1/2;
 6/7=2,8=2,9=2,10=2,28=1/1;
 7/10=1,18=20,25=1/1,2,3,16;
 1/5=1,7=10,10=4,11=1,14=-1,18=40/3(2);
 2/29=3/2;
 99//99;
 2/29=3/2;
 3/5=1,6=6,7=1111,11=2,14=3,15=25,16=1,25=1,30=1,71=1,74=-5/1,2,3;
 4/5=5,16=3/1;
 5/5=2,38=5/2;
 7//1,2,3,16;
 1/5=1,7=10,11=1,14=-1,18=40/3(-5);
 2/29=3/2;
 6/7=2,8=2,9=2,10=2,19=2,28=1/1;
 99/9=1/99;
 -----------
 OH-BACK-MID
 -----------
 Symbolic Z-matrix:
 Charge = -1 Multiplicity = 1
 C
 O                    1    B1
 C                    1    B2       2    A1
 C                    1    B3       3    A2       2    D1       0
 H                    2    B4       1    A3       3    D2       0
 H                    1    B5       3    A4       4    D3       0
 H                    3    B6       1    A5       4    D4       0
 H                    3    B7       1    A6       4    D5       0
 H                    4    B8       1    A7       3    D6       0
 H                    4    B9       1    A8       3    D7       0
 H                    4    B10      1    A9       3    D8       0
 O                    3    B11      1    A10      4    D9       0
       Variables:
  B1                    2.24655                  
  B2                    1.44905                  
  B3                    1.50662                  
  B4                    0.96969                  
  B5                    1.07714                  
  B6                    1.09938                  
  B7                    1.09933                  
  B8                    1.09385                  
  B9                    1.09642                  
  B10                   1.09334                  
  B11                   1.41551                  
  A1                  106.87175                  
  A2                  122.38048                  
  A3                  106.91883                  
  A4                  118.14169                  
  A5                  118.74196                  
  A6                  117.78619                  
  A7                  109.64033                  
  A8                  110.42135                  
  A9                  109.88109                  
  A10                  71.09052                  
  D1                  -95.84505                  
  D2                   44.62635                  
  D3                 -179.98061                  
  D4                 -158.32416                  
  D5                  -18.56116                  
  D6                   55.67219                  
  D7                  -66.23369                  
  D8                  172.74659                  
  D9                   91.46058                  
 

 GradGradGradGradGradGradGradGradGradGradGradGradGradGradGradGradGradGrad
 Berny optimization.
 Initialization pass.
                       ----------------------------
                       !    Initial Parameters    !
                       ! (Angstroms and Degrees)  !
 ----------------------                            ----------------------
 !      Name          Value   Derivative information (Atomic Units)     !
 ------------------------------------------------------------------------
 !       B1          2.2465   calculate D2E/DX2 analytically            !
 !       B2          1.4491   calculate D2E/DX2 analytically            !
 !       B3          1.5066   calculate D2E/DX2 analytically            !
 !       B4          0.9697   calculate D2E/DX2 analytically            !
 !       B5          1.0771   calculate D2E/DX2 analytically            !
 !       B6          1.0994   calculate D2E/DX2 analytically            !
 !       B7          1.0993   calculate D2E/DX2 analytically            !
 !       B8          1.0938   calculate D2E/DX2 analytically            !
 !       B9          1.0964   calculate D2E/DX2 analytically            !
 !       B10         1.0933   calculate D2E/DX2 analytically            !
 !       B11         1.4155   calculate D2E/DX2 analytically            !
 !       A1        106.8718   calculate D2E/DX2 analytically            !
 !       A2        122.3805   calculate D2E/DX2 analytically            !
 !       A3        106.9188   calculate D2E/DX2 analytically            !
 !       A4        118.1417   calculate D2E/DX2 analytically            !
 !       A5        118.742    calculate D2E/DX2 analytically            !
 !       A6        117.7862   calculate D2E/DX2 analytically            !
 !       A7        109.6403   calculate D2E/DX2 analytically            !
 !       A8        110.4214   calculate D2E/DX2 analytically            !
 !       A9        109.8811   calculate D2E/DX2 analytically            !
 !       A10        71.0905   calculate D2E/DX2 analytically            !
 !       D1        -95.845    calculate D2E/DX2 analytically            !
 !       D2         44.6263   calculate D2E/DX2 analytically            !
 !       D3       -179.9806   calculate D2E/DX2 analytically            !
 !       D4       -158.3242   calculate D2E/DX2 analytically            !
 !       D5        -18.5612   calculate D2E/DX2 analytically            !
 !       D6         55.6722   calculate D2E/DX2 analytically            !
 !       D7        -66.2337   calculate D2E/DX2 analytically            !
 !       D8        172.7466   calculate D2E/DX2 analytically            !
 !       D9         91.4606   calculate D2E/DX2 analytically            !
 ------------------------------------------------------------------------
 Trust Radius=3.00D-01 FncErr=1.00D-07 GrdErr=1.00D-06
 Number of steps in this run=     40 maximum allowed number of steps=    100.
 Search for a saddle point of order  1.
 GradGradGradGradGradGradGradGradGradGradGradGradGradGradGradGradGradGrad

 ---------------------------------------------------------------------------------------------------
                            Z-MATRIX (ANGSTROMS AND DEGREES)
   CD    Cent   Atom    N1       Length/X        N2       Alpha/Y        N3        Beta/Z          J
 ---------------------------------------------------------------------------------------------------
      1      1  C 
      2      2  O        1   2.246546(     1)
      3      3  C        1   1.449052(     2)      2  106.872(    12)
      4      4  C        1   1.506618(     3)      3  122.380(    13)      2  -95.845(    22)      0
      5      5  H        2   0.969687(     4)      1  106.919(    14)      3   44.626(    23)      0
      6      6  H        1   1.077144(     5)      3  118.142(    15)      4 -179.981(    24)      0
      7      7  H        3   1.099381(     6)      1  118.742(    16)      4 -158.324(    25)      0
      8      8  H        3   1.099332(     7)      1  117.786(    17)      4  -18.561(    26)      0
      9      9  H        4   1.093846(     8)      1  109.640(    18)      3   55.672(    27)      0
     10     10  H        4   1.096419(     9)      1  110.421(    19)      3  -66.234(    28)      0
     11     11  H        4   1.093342(    10)      1  109.881(    20)      3  172.747(    29)      0
     12     12  O        3   1.415511(    11)      1   71.091(    21)      4   91.461(    30)      0
 ---------------------------------------------------------------------------------------------------
                         Z-Matrix orientation:                         
 ---------------------------------------------------------------------
 Center     Atomic      Atomic             Coordinates (Angstroms)
 Number     Number       Type             X           Y           Z
 ---------------------------------------------------------------------
      1          6           0        0.000000    0.000000    0.000000
      2          8           0        0.000000    0.000000    2.246546
      3          6           0        1.386680    0.000000   -0.420559
      4          6           0       -0.809730   -1.265740    0.110176
      5          1           0        0.660259    0.651703    2.528741
      6          1           0       -0.458191    0.944903    0.239706
      7          1           0        2.021850    0.854855   -0.147757
      8          1           0        1.939234   -0.948717   -0.364428
      9          1           0       -0.301377   -1.970768    0.774264
     10          1           0       -0.958745   -1.711984   -0.880175
     11          1           0       -1.780218   -1.047943    0.564173
     12          8           0        0.562197    0.170285   -1.558497
 ---------------------------------------------------------------------
                    Distance matrix (angstroms):
                    1          2          3          4          5
     1  C    0.000000
     2  O    2.246546   0.000000
     3  C    1.449052   3.006049   0.000000
     4  C    1.506618   2.611865   2.589980   0.000000
     5  H    2.693546   0.969687   3.106570   3.418613   0.000000
     6  H    1.077144   2.264992   2.175394   2.242164   2.564484
     7  H    2.200111   3.248283   1.099381   3.547013   3.009791
     8  H    2.189406   3.387902   1.099332   2.807589   3.545074
     9  H    2.138747   2.478380   2.856758   1.093846   3.298528
    10  H    2.150532   3.691404   2.939924   1.096419   4.452965
    11  H    2.141414   2.664158   3.478092   1.093342   3.564302
    12  O    1.665526   3.850119   1.415511   2.593997   4.116661
                    6          7          8          9         10
     6  H    0.000000
     7  H    2.511740   0.000000
     8  H    3.114229   1.818418   0.000000
     9  H    2.968414   3.772486   2.713217   0.000000
    10  H    2.926386   4.001130   3.040864   1.798964   0.000000
    11  H    2.413394   4.310824   3.834901   1.755766   1.789388
    12  O    2.207886   2.142291   2.138737   3.282018   2.513229
                   11         12
    11  H    0.000000
    12  O    3.387730   0.000000
 Stoichiometry    C3H7O2(1-)
 Framework group  C1[X(C3H7O2)]
 Deg. of freedom    30
 Full point group                 C1      NOp   1
 Largest Abelian subgroup         C1      NOp   1
 Largest concise Abelian subgroup C1      NOp   1
                         Standard orientation:                         
 ---------------------------------------------------------------------
 Center     Atomic      Atomic             Coordinates (Angstroms)
 Number     Number       Type             X           Y           Z
 ---------------------------------------------------------------------
      1          6           0       -0.099656    0.069063   -0.334130
      2          8           0        2.043223   -0.546421   -0.058056
      3          6           0       -0.905357   -0.853982    0.439554
      4          6           0        0.331606    1.409151    0.202596
      5          1           0        2.073465   -1.511462   -0.147914
      6          1           0        0.195518   -0.223882   -1.327758
      7          1           0       -0.891191   -1.920286    0.172282
      8          1           0       -0.945603   -0.710439    1.528731
      9          1           0        0.866841    1.272138    1.146657
     10          1           0       -0.537863    2.061401    0.346569
     11          1           0        1.032305    1.879953   -0.492214
     12          8           0       -1.762351   -0.027681   -0.326252
 ---------------------------------------------------------------------
 Rotational constants (GHZ):      7.7526068      3.4226633      2.6685927
 Standard basis: 6-31++G(d,p) (6D, 7F)
 The following finite field(s) will be applied:
 An electric field of              0.0000  0.0000  0.0025
 There are   137 symmetry adapted basis functions of A   symmetry.
 Integral buffers will be    131072 words long.
 Raffenetti 2 integral format.
 Two-electron integral symmetry is turned on.
   137 basis functions,   216 primitive gaussians,   137 cartesian basis functions
    21 alpha electrons       21 beta electrons
       nuclear repulsion energy       178.6701476127 Hartrees.
 NAtoms=   12 NActive=   12 NUniq=   12 SFac= 1.00D+00 NAtFMM=   50 NAOKFM=F Big=F
 One-electron integrals computed using PRISM.
 PrsmSu:  requested number of processors reduced to:  10 ShMem   1 Linda.
 NBasis=   137 RedAO= T  NBF=   137
 NBsUse=   137 1.00D-06 NBFU=   137
 The nuclear repulsion energy is now       178.6701476127 hartrees.
 Harris functional with IExCor=  402 diagonalized for initial guess.
 ExpMin= 3.60D-02 ExpMax= 5.48D+03 ExpMxC= 8.25D+02 IAcc=3 IRadAn=         0 AccDes= 0.00D+00
 HarFok:  IExCor=  402 AccDes= 0.00D+00 IRadAn=         0 IDoV= 1
 ScaDFX=  1.000000  1.000000  1.000000  1.000000
 FoFCou: FMM=F IPFlag=           0 FMFlag=      100000 FMFlg1=           0
         NFxFlg=           0 DoJE=T BraDBF=F KetDBF=T FulRan=T
         Omega=  0.000000  0.000000  1.000000  0.000000  0.000000 ICntrl=     500 IOpCl=  0
         NMat0=    1 NMatS0=    1 NMatT0=    0 NMatD0=    1 NMtDS0=    0 NMtDT0=    0
         I1Cent=           4 NGrid=           0.
 Petite list used in FoFCou.
 Initial guess orbital symmetries:
       Occupied  (A) (A) (A) (A) (A) (A) (A) (A) (A) (A) (A) (A)
                 (A) (A) (A) (A) (A) (A) (A) (A) (A)
       Virtual   (A) (A) (A) (A) (A) (A) (A) (A) (A) (A) (A) (A)
                 (A) (A) (A) (A) (A) (A) (A) (A) (A) (A) (A) (A)
                 (A) (A) (A) (A) (A) (A) (A) (A) (A) (A) (A) (A)
                 (A) (A) (A) (A) (A) (A) (A) (A) (A) (A) (A) (A)
                 (A) (A) (A) (A) (A) (A) (A) (A) (A) (A) (A) (A)
                 (A) (A) (A) (A) (A) (A) (A) (A) (A) (A) (A) (A)
                 (A) (A) (A) (A) (A) (A) (A) (A) (A) (A) (A) (A)
                 (A) (A) (A) (A) (A) (A) (A) (A) (A) (A) (A) (A)
                 (A) (A) (A) (A) (A) (A) (A) (A) (A) (A) (A) (A)
                 (A) (A) (A) (A) (A) (A) (A) (A)
 The electronic state of the initial guess is 1-A.
 Requested convergence on RMS density matrix=1.00D-08 within 128 cycles.
 Requested convergence on MAX density matrix=1.00D-06.
 Requested convergence on             energy=1.00D-06.
 No special actions if energy rises.
 SCF Done:  E(RB3LYP) =  -268.937827860     A.U. after   15 cycles
             Convg  =    0.8749D-08             -V/T =  2.0093
 Range of M.O.s used for correlation:     1   137
 NBasis=   137 NAE=    21 NBE=    21 NFC=     0 NFV=     0
 NROrb=    137 NOA=    21 NOB=    21 NVA=   116 NVB=   116

 **** Warning!!: The largest alpha MO coefficient is  0.46914594D+02

 PrsmSu:  requested number of processors reduced to:  10 ShMem   1 Linda.
 PrsmSu:  requested number of processors reduced to:  18 ShMem   1 Linda.
 Symmetrizing basis deriv contribution to polar:
 IMax=3 JMax=2 DiffMx= 0.00D+00
 G2DrvN: will do     4 centers at a time, making    4 passes doing MaxLOS=2.
 Estimated number of processors is:   15
 Calling FoFCou, ICntrl=  3107 FMM=F I1Cent=   0 AccDes= 0.00D+00.
 CoulSu:  requested number of processors reduced to:  15 ShMem   1 Linda.
 Calling FoFCou, ICntrl=  3107 FMM=F I1Cent=   0 AccDes= 0.00D+00.
 CoulSu:  requested number of processors reduced to:  15 ShMem   1 Linda.
 Calling FoFCou, ICntrl=  3107 FMM=F I1Cent=   0 AccDes= 0.00D+00.
 CoulSu:  requested number of processors reduced to:  15 ShMem   1 Linda.
 Calling FoFCou, ICntrl=  3107 FMM=F I1Cent=   0 AccDes= 0.00D+00.
 CoulSu:  requested number of processors reduced to:  15 ShMem   1 Linda.
 FoFDir/FoFCou used for L=0 through L=2.
 End of G2Drv Frequency-dependent properties file   721 does not exist.
 End of G2Drv Frequency-dependent properties file   722 does not exist.
          IDoAtm=111111111111
          Differentiating once with respect to nuclear coordinates.
 PrRfSu:  requested number of processors reduced to:  15 ShMem   1 Linda.
 CalDSu:  requested number of processors reduced to:  19 ShMem   1 Linda.
          There are    39 degrees of freedom in the 1st order CPHF.  IDoFFX=5.
     33 vectors produced by pass  0 Test12= 6.25D-11 2.56D-07 XBig12= 1.93D-01 1.19D-01.
 AX will form    33 AO Fock derivatives at one time.
 PrRfSu:  requested number of processors reduced to:  16 ShMem   1 Linda.
 CalDSu:  requested number of processors reduced to:  20 ShMem   1 Linda.
     33 vectors produced by pass  1 Test12= 6.25D-11 2.56D-07 XBig12= 7.65D-02 6.84D-02.
 PrRfSu:  requested number of processors reduced to:  16 ShMem   1 Linda.
 CalDSu:  requested number of processors reduced to:  20 ShMem   1 Linda.
     33 vectors produced by pass  2 Test12= 6.25D-11 2.56D-07 XBig12= 1.05D-03 7.64D-03.
 PrRfSu:  requested number of processors reduced to:  16 ShMem   1 Linda.
 CalDSu:  requested number of processors reduced to:  20 ShMem   1 Linda.
     33 vectors produced by pass  3 Test12= 6.25D-11 2.56D-07 XBig12= 5.75D-06 5.26D-04.
 PrRfSu:  requested number of processors reduced to:  16 ShMem   1 Linda.
 CalDSu:  requested number of processors reduced to:  20 ShMem   1 Linda.
     22 vectors produced by pass  4 Test12= 6.25D-11 2.56D-07 XBig12= 1.91D-08 2.57D-05.
 PrRfSu:  requested number of processors reduced to:  17 ShMem   1 Linda.
 CalDSu:  requested number of processors reduced to:  22 ShMem   1 Linda.
      1 vectors produced by pass  5 Test12= 6.25D-11 2.56D-07 XBig12= 3.36D-11 9.40D-07.
 Inverted reduced A of dimension   155 with in-core refinement.
 End of Minotr Frequency-dependent properties file   721 does not exist.
 End of Minotr Frequency-dependent properties file   722 does not exist.

 **********************************************************************

            Population analysis using the SCF density.

 **********************************************************************

 Orbital symmetries:
       Occupied  (A) (A) (A) (A) (A) (A) (A) (A) (A) (A) (A) (A)
                 (A) (A) (A) (A) (A) (A) (A) (A) (A)
       Virtual   (A) (A) (A) (A) (A) (A) (A) (A) (A) (A) (A) (A)
                 (A) (A) (A) (A) (A) (A) (A) (A) (A) (A) (A) (A)
                 (A) (A) (A) (A) (A) (A) (A) (A) (A) (A) (A) (A)
                 (A) (A) (A) (A) (A) (A) (A) (A) (A) (A) (A) (A)
                 (A) (A) (A) (A) (A) (A) (A) (A) (A) (A) (A) (A)
                 (A) (A) (A) (A) (A) (A) (A) (A) (A) (A) (A) (A)
                 (A) (A) (A) (A) (A) (A) (A) (A) (A) (A) (A) (A)
                 (A) (A) (A) (A) (A) (A) (A) (A) (A) (A) (A) (A)
                 (A) (A) (A) (A) (A) (A) (A) (A) (A) (A) (A) (A)
                 (A) (A) (A) (A) (A) (A) (A) (A)
 The electronic state is 1-A.
 Alpha  occ. eigenvalues --  -18.95932 -18.85715 -10.07150 -10.06630 -10.01911
 Alpha  occ. eigenvalues --   -0.83886  -0.66172  -0.57588  -0.49153  -0.41873
 Alpha  occ. eigenvalues --   -0.32408  -0.28447  -0.25466  -0.23350  -0.20109
 Alpha  occ. eigenvalues --   -0.18228  -0.14898  -0.12251  -0.08399  -0.01411
 Alpha  occ. eigenvalues --   -0.00890
 Alpha virt. eigenvalues --    0.10724   0.12394   0.13443   0.14393   0.15941
 Alpha virt. eigenvalues --    0.15969   0.16800   0.19012   0.21132   0.21765
 Alpha virt. eigenvalues --    0.23155   0.24258   0.25732   0.25950   0.26853
 Alpha virt. eigenvalues --    0.27186   0.28764   0.28807   0.29655   0.31634
 Alpha virt. eigenvalues --    0.35345   0.36224   0.37561   0.38053   0.39788
 Alpha virt. eigenvalues --    0.40470   0.40583   0.41254   0.45169   0.46280
 Alpha virt. eigenvalues --    0.47543   0.49286   0.50374   0.51755   0.53389
 Alpha virt. eigenvalues --    0.55079   0.55763   0.58243   0.79206   0.83336
 Alpha virt. eigenvalues --    0.87604   0.89209   0.92746   0.93478   0.95680
 Alpha virt. eigenvalues --    1.00775   1.03720   1.11111   1.13668   1.16503
 Alpha virt. eigenvalues --    1.19110   1.23189   1.24338   1.27728   1.29542
 Alpha virt. eigenvalues --    1.36102   1.41150   1.42460   1.43750   1.47289
 Alpha virt. eigenvalues --    1.51904   1.55812   1.57507   1.63024   1.68297
 Alpha virt. eigenvalues --    1.71859   1.80555   1.85247   1.88958   1.90662
 Alpha virt. eigenvalues --    1.93044   1.93908   1.96953   2.03020   2.10194
 Alpha virt. eigenvalues --    2.11688   2.16869   2.19872   2.21187   2.22849
 Alpha virt. eigenvalues --    2.26612   2.30319   2.31139   2.35403   2.40890
 Alpha virt. eigenvalues --    2.44154   2.49666   2.56210   2.60644   2.66826
 Alpha virt. eigenvalues --    2.71003   2.75314   2.79405   2.83340   2.87141
 Alpha virt. eigenvalues --    2.90430   2.92754   2.95159   2.99421   3.02446
 Alpha virt. eigenvalues --    3.05834   3.07462   3.15138   3.19987   3.43341
 Alpha virt. eigenvalues --    3.46014   3.59085   3.62387   3.62779   3.71162
 Alpha virt. eigenvalues --    3.76688   4.39297   4.48442   4.59057   4.74898
 Alpha virt. eigenvalues --    4.82584
          Condensed to atoms (all electrons):
              1          2          3          4          5          6
     1  C   10.083254  -0.393264  -1.302041  -2.515072   0.044653   0.656767
     2  O   -0.393264   8.968384   0.058556   0.153523   0.133500  -0.055171
     3  C   -1.302041   0.058556   6.313114   0.215839   0.008556  -0.140067
     4  C   -2.515072   0.153523   0.215839   7.485112  -0.024323  -0.113209
     5  H    0.044653   0.133500   0.008556  -0.024323   0.623916  -0.003465
     6  H    0.656767  -0.055171  -0.140067  -0.113209  -0.003465   0.549367
     7  H   -0.377826   0.027800   0.571311   0.141916  -0.003995  -0.056948
     8  H    0.245747  -0.006080   0.249975  -0.159496   0.000541   0.023472
     9  H   -0.168657   0.015797   0.128159   0.385479  -0.000976  -0.024311
    10  H   -0.086167   0.014205   0.031339   0.394003  -0.002611  -0.006530
    11  H   -0.112099  -0.011402  -0.037799   0.520125   0.000655   0.016291
    12  O   -0.406095   0.052893   0.095472   0.231358  -0.007958  -0.059308
              7          8          9         10         11         12
     1  C   -0.377826   0.245747  -0.168657  -0.086167  -0.112099  -0.406095
     2  O    0.027800  -0.006080   0.015797   0.014205  -0.011402   0.052893
     3  C    0.571311   0.249975   0.128159   0.031339  -0.037799   0.095472
     4  C    0.141916  -0.159496   0.385479   0.394003   0.520125   0.231358
     5  H   -0.003995   0.000541  -0.000976  -0.002611   0.000655  -0.007958
     6  H   -0.056948   0.023472  -0.024311  -0.006530   0.016291  -0.059308
     7  H    0.788680  -0.143294   0.003467   0.008862  -0.000074  -0.039662
     8  H   -0.143294   0.809132   0.005730  -0.020812  -0.005052  -0.083999
     9  H    0.003467   0.005730   0.543222  -0.028972  -0.028496   0.006888
    10  H    0.008862  -0.020812  -0.028972   0.616644  -0.036103  -0.001126
    11  H   -0.000074  -0.005052  -0.028496  -0.036103   0.535213   0.005374
    12  O   -0.039662  -0.083999   0.006888  -0.001126   0.005374   8.712380
 Mulliken atomic charges:
              1
     1  C    0.330800
     2  O   -0.958742
     3  C   -0.192413
     4  C   -0.715254
     5  H    0.231507
     6  H    0.213113
     7  H    0.079763
     8  H    0.084136
     9  H    0.162670
    10  H    0.117268
    11  H    0.153368
    12  O   -0.506216
 Sum of Mulliken atomic charges =  -1.00000
 Mulliken charges with hydrogens summed into heavy atoms:
              1
     1  C    0.543912
     2  O   -0.727235
     3  C   -0.028515
     4  C   -0.281947
    12  O   -0.506216
 Sum of Mulliken charges with hydrogens summed into heavy atoms =  -1.00000
 APT atomic charges:
              1
     1  C    0.098957
     2  O   -1.233289
     3  C   -0.634148
     4  C   -1.291088
     5  H    0.426261
     6  H    0.418112
     7  H    0.364806
     8  H    0.305383
     9  H    0.328746
    10  H    0.351511
    11  H    0.411235
    12  O   -0.546487
 Sum of APT charges=  -1.00000
 APT Atomic charges with hydrogens summed into heavy atoms:
              1
     1  C    0.517069
     2  O   -0.807027
     3  C    0.036041
     4  C   -0.199595
     5  H    0.000000
     6  H    0.000000
     7  H    0.000000
     8  H    0.000000
     9  H    0.000000
    10  H    0.000000
    11  H    0.000000
    12  O   -0.546487
 Sum of APT charges=  -1.00000
 Electronic spatial extent (au):  <R**2>=            511.9671
 Charge=             -1.0000 electrons
 Dipole moment (field-independent basis, Debye):
    X=             -3.5575    Y=              0.4414    Z=              0.2693  Tot=              3.5949
 Quadrupole moment (field-independent basis, Debye-Ang):
   XX=            -63.4297   YY=            -34.4620   ZZ=            -36.2424
   XY=              2.9742   XZ=             -2.2611   YZ=              0.1660
 Traceless Quadrupole moment (field-independent basis, Debye-Ang):
   XX=            -18.7183   YY=             10.2494   ZZ=              8.4689
   XY=              2.9742   XZ=             -2.2611   YZ=              0.1660
 Octapole moment (field-independent basis, Debye-Ang**2):
  XXX=            -33.3562  YYY=             -6.2356  ZZZ=             -3.0573  XYY=              0.2198
  XXY=              5.1651  XXZ=              3.4478  XZZ=             -3.4074  YZZ=              0.8081
  YYZ=             -2.7922  XYZ=              0.7045
 Hexadecapole moment (field-independent basis, Debye-Ang**3):
 XXXX=           -576.3822 YYYY=           -227.2363 ZZZZ=            -91.9431 XXXY=             15.7744
 XXXZ=             -5.5285 YYYX=             -6.0383 YYYZ=              0.5889 ZZZX=              0.2172
 ZZZY=              0.7922 XXYY=           -102.7005 XXZZ=            -94.9168 YYZZ=            -54.7070
 XXYZ=             -0.1841 YYXZ=             -0.9876 ZZXY=              1.8701
 N-N= 1.786701476127D+02 E-N=-9.950078799295D+02  KE= 2.664716298433D+02
  Exact polarizability:   0.000   0.000   0.000   0.000   0.000   0.000
 Approx polarizability: 109.961  -6.167  77.214   1.346  -3.248  76.661
 PrsmSu:  requested number of processors reduced to:  10 ShMem   1 Linda.
 PrsmSu:  requested number of processors reduced to:  11 ShMem   1 Linda.
 Calling FoFJK, ICntrl=    100147 FMM=F ISym2X=0 I1Cent= 0 IOpClX= 0 NMat=1 NMatS=1 NMatT=0.
 CoulSu:  requested number of processors reduced to:  11 ShMem   1 Linda.
 ***** Axes restored to original set *****
 -------------------------------------------------------------------
 Center     Atomic                   Forces (Hartrees/Bohr)
 Number     Number              X              Y              Z
 -------------------------------------------------------------------
      1        6          -0.000390803    0.000043098   -0.005231238
      2        8           0.001628204   -0.001654006    0.009201917
      3        6          -0.000977054    0.000972435    0.000011921
      4        6          -0.000137056    0.000160794    0.000234909
      5        1          -0.000723129    0.000127451    0.000315284
      6        1           0.000019202   -0.000103709   -0.000136112
      7        1          -0.000125478   -0.000165662    0.000075309
      8        1           0.000339641   -0.000662993    0.000226653
      9        1           0.000126351    0.000063252    0.000300915
     10        1          -0.000171383   -0.000105364   -0.000557052
     11        1           0.000329416   -0.000033045   -0.000021861
     12        8           0.001570113   -0.000627547   -0.004113423
 -------------------------------------------------------------------
 Cartesian Forces:  Max     0.009201917 RMS     0.001980858
 -----------------------------------------------------------------------------------------------
                       Internal Coordinate Forces (Hartree/Bohr or radian)
  Cent   Atom   N1       Length/X         N2         Alpha/Y        N3         Beta/Z          J
 -----------------------------------------------------------------------------------------------
      1  C 
      2  O        1   0.009517(     1)
      3  C        1   0.001875(     2)      2  -0.000695(    12)
      4  C        1  -0.000154(     3)      3  -0.000194(    13)      2   0.003174(    22)     0
      5  H        2  -0.000315(     4)      1   0.000779(    14)      3   0.001050(    23)     0
      6  H        1  -0.000129(     5)      3   0.000007(    15)      4   0.000204(    24)     0
      7  H        3  -0.000183(     6)      1  -0.000128(    16)      4   0.000197(    25)     0
      8  H        3   0.000754(     7)      1  -0.000217(    17)      4  -0.000297(    26)     0
      9  H        4   0.000201(     8)      1  -0.000365(    18)      3   0.000385(    27)     0
     10  H        4   0.000569(     9)      1  -0.000130(    19)      3  -0.000293(    28)     0
     11  H        4  -0.000308(    10)      1  -0.000101(    20)      3  -0.000220(    29)     0
     12  O        3   0.002317(    11)      1   0.009747(    21)      4  -0.002695(    30)     0
 -----------------------------------------------------------------------------------------------
 Internal  Forces:  Max     0.009746986 RMS     0.002682699

 GradGradGradGradGradGradGradGradGradGradGradGradGradGradGradGradGradGrad
 Berny optimization.
 Search for a saddle point.
 Step number   1 out of a maximum of   40
 All quantities printed in internal units (Hartrees-Bohrs-Radians)
 Swaping is turned off.
 Second derivative matrix not updated -- analytic derivatives used.
 ITU=  0
     Eigenvalues ---   -0.02620  -0.00221   0.00334   0.02131   0.03847
     Eigenvalues ---    0.07341   0.10172   0.11617   0.12065   0.12172
     Eigenvalues ---    0.13862   0.15315   0.20491   0.22856   0.25686
     Eigenvalues ---    0.29262   0.30507   0.31544   0.33144   0.33375
     Eigenvalues ---    0.34481   0.34677   0.35222   0.35823   0.37276
     Eigenvalues ---    0.38236   0.40693   0.50924   0.58736   0.60208
 Eigenvectors required to have negative eigenvalues:
                          B1        D3        A10       D5        D9
   1                    0.63939  -0.54214  -0.33554   0.29514   0.17652
                          A3        D1        D6        A6        B11
   1                    0.17107   0.13713   0.06231   0.05775   0.04466
 RFO step:  Lambda0=2.914980514D-04 Lambda=-2.31341770D-03.
 Linear search not attempted -- option 19 set.
 Maximum step size (   0.300) exceeded in Quadratic search.
    -- Step size scaled by   0.374
 Variable       Old X    -DE/DX   Delta X   Delta X   Delta X     New X
                                 (Linear)    (Quad)   (Total)
    B1        4.24536   0.00952   0.00000   0.03173   0.03173   4.27708
    B2        2.73831   0.00188   0.00000   0.00016   0.00016   2.73847
    B3        2.84710  -0.00015   0.00000  -0.00206  -0.00206   2.84504
    B4        1.83244  -0.00031   0.00000  -0.00039  -0.00039   1.83205
    B5        2.03551  -0.00013   0.00000   0.00106   0.00106   2.03657
    B6        2.07753  -0.00018   0.00000   0.00118   0.00118   2.07871
    B7        2.07744   0.00075   0.00000   0.00149   0.00149   2.07892
    B8        2.06707   0.00020   0.00000   0.00114   0.00114   2.06821
    B9        2.07193   0.00057   0.00000   0.00053   0.00053   2.07247
   B10        2.06612  -0.00031   0.00000  -0.00213  -0.00213   2.06398
   B11        2.67493   0.00232   0.00000  -0.00401  -0.00401   2.67091
    A1        1.86526  -0.00069   0.00000  -0.00001  -0.00001   1.86526
    A2        2.13594  -0.00019   0.00000   0.00627   0.00627   2.14221
    A3        1.86609   0.00078   0.00000  -0.00964  -0.00964   1.85645
    A4        2.06196   0.00001   0.00000  -0.00223  -0.00223   2.05973
    A5        2.07244  -0.00013   0.00000  -0.00269  -0.00269   2.06974
    A6        2.05576  -0.00022   0.00000  -0.00550  -0.00550   2.05026
    A7        1.91358  -0.00037   0.00000   0.00661   0.00661   1.92019
    A8        1.92722  -0.00013   0.00000   0.00395   0.00395   1.93117
    A9        1.91779  -0.00010   0.00000  -0.00839  -0.00839   1.90940
   A10        1.24076   0.00975   0.00000   0.01796   0.01796   1.25872
    D1       -1.67281   0.00317   0.00000   0.00891   0.00891  -1.66391
    D2        0.77888   0.00105   0.00000   0.04819   0.04819   0.82706
    D3       -3.14125   0.00020   0.00000   0.02926   0.02926  -3.11200
    D4       -2.76328   0.00020   0.00000  -0.01071  -0.01071  -2.77398
    D5       -0.32395  -0.00030   0.00000  -0.03023  -0.03023  -0.35418
    D6        0.97166   0.00038   0.00000  -0.16754  -0.16754   0.80412
    D7       -1.15600  -0.00029   0.00000  -0.16223  -0.16223  -1.31823
    D8        3.01500  -0.00022   0.00000  -0.17110  -0.17110   2.84390
    D9        1.59629  -0.00270   0.00000  -0.01962  -0.01962   1.57667
         Item               Value     Threshold  Converged?
 Maximum Force            0.009747     0.000015     NO 
 RMS     Force            0.002683     0.000010     NO 
 Maximum Displacement     0.171100     0.000060     NO 
 RMS     Displacement     0.054772     0.000040     NO 
 Predicted change in Energy=-6.194774D-04
 GradGradGradGradGradGradGradGradGradGradGradGradGradGradGradGradGradGrad

 ---------------------------------------------------------------------------------------------------
                            Z-MATRIX (ANGSTROMS AND DEGREES)
   CD    Cent   Atom    N1       Length/X        N2       Alpha/Y        N3        Beta/Z          J
 ---------------------------------------------------------------------------------------------------
      1      1  C 
      2      2  O        1   2.263334(     1)
      3      3  C        1   1.449135(     2)      2  106.871(    12)
      4      4  C        1   1.505530(     3)      3  122.740(    13)      2  -95.335(    22)      0
      5      5  H        2   0.969480(     4)      1  106.367(    14)      3   47.387(    23)      0
      6      6  H        1   1.077704(     5)      3  118.014(    15)      4 -178.304(    24)      0
      7      7  H        3   1.100004(     6)      1  118.588(    16)      4 -158.938(    25)      0
      8      8  H        3   1.100118(     7)      1  117.471(    17)      4  -20.293(    26)      0
      9      9  H        4   1.094448(     8)      1  110.019(    18)      3   46.073(    27)      0
     10     10  H        4   1.096702(     9)      1  110.648(    19)      3  -75.529(    28)      0
     11     11  H        4   1.092212(    10)      1  109.400(    20)      3  162.943(    29)      0
     12     12  O        3   1.413387(    11)      1   72.119(    21)      4   90.337(    30)      0
 ---------------------------------------------------------------------------------------------------
                         Z-Matrix orientation:                         
 ---------------------------------------------------------------------
 Center     Atomic      Atomic             Coordinates (Angstroms)
 Number     Number       Type             X           Y           Z
 ---------------------------------------------------------------------
      1          6           0        0.000000    0.000000    0.000000
      2          8           0        0.000000    0.000000    2.263334
      3          6           0        1.386762    0.000000   -0.420576
      4          6           0       -0.813350   -1.260872    0.123636
      5          1           0        0.629778    0.684574    2.536519
      6          1           0       -0.466868    0.949516    0.204695
      7          1           0        2.015092    0.865188   -0.162391
      8          1           0        1.945523   -0.942998   -0.326765
      9          1           0       -0.237922   -2.027657    0.651594
     10          1           0       -1.106734   -1.630452   -0.866359
     11          1           0       -1.700421   -1.062466    0.729167
     12          8           0        0.583006    0.132928   -1.575552
 ---------------------------------------------------------------------
                    Distance matrix (angstroms):
                    1          2          3          4          5
     1  C    0.000000
     2  O    2.263334   0.000000
     3  C    1.449135   3.021007   0.000000
     4  C    1.505530   2.613359   2.593541   0.000000
     5  H    2.701701   0.969480   3.128270   3.418973   0.000000
     6  H    1.077704   2.314637   2.174509   2.238846   2.590411
     7  H    2.198981   3.270059   1.100004   3.549933   3.039050
     8  H    2.186568   3.373859   1.100118   2.813412   3.546628
     9  H    2.143029   2.601097   2.810790   1.094448   3.414973
    10  H    2.152629   3.698407   3.012411   1.096702   4.467035
    11  H    2.133530   2.524666   3.461422   1.092212   3.427608
    12  O    1.685209   3.885179   1.413387   2.603791   4.149172
                    6          7          8          9         10
     6  H    0.000000
     7  H    2.510376   0.000000
     8  H    3.111863   1.816974   0.000000
     9  H    3.019221   3.755955   2.626996   0.000000
    10  H    2.865802   4.058274   3.174906   1.793541   0.000000
    11  H    2.417602   4.279692   3.797654   1.753999   1.794652
    12  O    2.222236   2.141051   2.138583   3.209709   2.543165
                   11         12
    11  H    0.000000
    12  O    3.457563   0.000000
 Stoichiometry    C3H7O2(1-)
 Framework group  C1[X(C3H7O2)]
 Deg. of freedom    30
 Full point group                 C1      NOp   1
 Largest Abelian subgroup         C1      NOp   1
 Largest concise Abelian subgroup C1      NOp   1
                         Standard orientation:                         
 ---------------------------------------------------------------------
 Center     Atomic      Atomic             Coordinates (Angstroms)
 Number     Number       Type             X           Y           Z
 ---------------------------------------------------------------------
      1          6           0       -0.100118    0.068920   -0.340598
      2          8           0        2.058796   -0.544345   -0.047894
      3          6           0       -0.908282   -0.858059    0.425935
      4          6           0        0.336362    1.405761    0.196953
      5          1           0        2.091197   -1.503628   -0.184343
      6          1           0        0.172023   -0.208293   -1.345854
      7          1           0       -0.901200   -1.921032    0.143008
      8          1           0       -0.923071   -0.734633    1.519007
      9          1           0        0.719641    1.292854    1.215857
     10          1           0       -0.498452    2.116944    0.189255
     11          1           0        1.161733    1.787984   -0.407692
     12          8           0       -1.782502   -0.021896   -0.304978
 ---------------------------------------------------------------------
 Rotational constants (GHZ):      7.8048200      3.3770042      2.6379437
 Standard basis: 6-31++G(d,p) (6D, 7F)
 The following finite field(s) will be applied:
 An electric field of              0.0000  0.0000  0.0025
 There are   137 symmetry adapted basis functions of A   symmetry.
 Integral buffers will be    131072 words long.
 Raffenetti 2 integral format.
 Two-electron integral symmetry is turned on.
   137 basis functions,   216 primitive gaussians,   137 cartesian basis functions
    21 alpha electrons       21 beta electrons
       nuclear repulsion energy       178.1791717030 Hartrees.
 NAtoms=   12 NActive=   12 NUniq=   12 SFac= 1.00D+00 NAtFMM=   50 NAOKFM=F Big=F
 One-electron integrals computed using PRISM.
 PrsmSu:  requested number of processors reduced to:  10 ShMem   1 Linda.
 NBasis=   137 RedAO= T  NBF=   137
 NBsUse=   137 1.00D-06 NBFU=   137
 The nuclear repulsion energy is now       178.1791717030 hartrees.
 Initial guess read from the read-write file.
 B after Tr=     0.000000    0.000000    0.000000
         Rot=    1.000000    0.000000    0.000000    0.000000 Ang=   0.00 deg.
 Initial guess orbital symmetries:
       Occupied  (A) (A) (A) (A) (A) (A) (A) (A) (A) (A) (A) (A)
                 (A) (A) (A) (A) (A) (A) (A) (A) (A)
       Virtual   (A) (A) (A) (A) (A) (A) (A) (A) (A) (A) (A) (A)
                 (A) (A) (A) (A) (A) (A) (A) (A) (A) (A) (A) (A)
                 (A) (A) (A) (A) (A) (A) (A) (A) (A) (A) (A) (A)
                 (A) (A) (A) (A) (A) (A) (A) (A) (A) (A) (A) (A)
                 (A) (A) (A) (A) (A) (A) (A) (A) (A) (A) (A) (A)
                 (A) (A) (A) (A) (A) (A) (A) (A) (A) (A) (A) (A)
                 (A) (A) (A) (A) (A) (A) (A) (A) (A) (A) (A) (A)
                 (A) (A) (A) (A) (A) (A) (A) (A) (A) (A) (A) (A)
                 (A) (A) (A) (A) (A) (A) (A) (A) (A) (A) (A) (A)
                 (A) (A) (A) (A) (A) (A) (A) (A)
 Harris functional with IExCor=  402 diagonalized for initial guess.
 ExpMin= 3.60D-02 ExpMax= 5.48D+03 ExpMxC= 8.25D+02 IAcc=3 IRadAn=         0 AccDes= 0.00D+00
 HarFok:  IExCor=  402 AccDes= 0.00D+00 IRadAn=         0 IDoV= 1
 ScaDFX=  1.000000  1.000000  1.000000  1.000000
 FoFCou: FMM=F IPFlag=           0 FMFlag=      100000 FMFlg1=           0
         NFxFlg=           0 DoJE=T BraDBF=F KetDBF=T FulRan=T
         Omega=  0.000000  0.000000  1.000000  0.000000  0.000000 ICntrl=     500 IOpCl=  0
         NMat0=    1 NMatS0=    1 NMatT0=    0 NMatD0=    1 NMtDS0=    0 NMtDT0=    0
         I1Cent=           4 NGrid=           0.
 Petite list used in FoFCou.
 Requested convergence on RMS density matrix=1.00D-08 within 128 cycles.
 Requested convergence on MAX density matrix=1.00D-06.
 Requested convergence on             energy=1.00D-06.
 No special actions if energy rises.
 SCF Done:  E(RB3LYP) =  -268.938446963     A.U. after   12 cycles
             Convg  =    0.3501D-08             -V/T =  2.0093
 PrsmSu:  requested number of processors reduced to:  10 ShMem   1 Linda.
 PrsmSu:  requested number of processors reduced to:  23 ShMem   1 Linda.
 Calling FoFJK, ICntrl=      2127 FMM=F ISym2X=0 I1Cent= 0 IOpClX= 0 NMat=1 NMatS=1 NMatT=0.
 CoulSu:  requested number of processors reduced to:  16 ShMem   1 Linda.
 ***** Axes restored to original set *****
 -------------------------------------------------------------------
 Center     Atomic                   Forces (Hartrees/Bohr)
 Number     Number              X              Y              Z
 -------------------------------------------------------------------
      1        6          -0.000190982   -0.000608682   -0.004159762
      2        8           0.001402118   -0.001099332    0.006242149
      3        6          -0.000447707    0.000631291    0.000476144
      4        6           0.000070588    0.000067734    0.000243068
      5        1          -0.000497378    0.000090696    0.000343405
      6        1          -0.000045127   -0.000082134   -0.000064037
      7        1          -0.000117021   -0.000086755    0.000026868
      8        1           0.000191982   -0.000410016    0.000152956
      9        1           0.000341507   -0.000059170   -0.000104458
     10        1          -0.000378142    0.000052872   -0.000360819
     11        1           0.000162462    0.000115456    0.000048159
     12        8           0.000987628   -0.000600749   -0.002520363
 -------------------------------------------------------------------
 Cartesian Forces:  Max     0.006242149 RMS     0.001389626
 -----------------------------------------------------------------------------------------------
                       Internal Coordinate Forces (Hartree/Bohr or radian)
  Cent   Atom   N1       Length/X         N2         Alpha/Y        N3         Beta/Z          J
 -----------------------------------------------------------------------------------------------
      1  C 
      2  O        1   0.006586(     1)
      3  C        1   0.001130(     2)      2  -0.000870(    12)
      4  C        1  -0.000269(     3)      3  -0.000219(    13)      2   0.001523(    22)     0
      5  H        2  -0.000162(     4)      1   0.000743(    14)      3   0.000751(    23)     0
      6  H        1  -0.000065(     5)      3   0.000127(    15)      4   0.000124(    24)     0
      7  H        3  -0.000129(     6)      1  -0.000138(    16)      4   0.000057(    25)     0
      8  H        3   0.000462(     7)      1  -0.000173(    17)      4  -0.000165(    26)     0
      9  H        4   0.000171(     8)      1  -0.000444(    18)      3  -0.000459(    27)     0
     10  H        4   0.000409(     9)      1  -0.000031(    19)      3  -0.000639(    28)     0
     11  H        4  -0.000084(    10)      1  -0.000334(    20)      3  -0.000183(    29)     0
     12  O        3   0.001441(    11)      1   0.005947(    21)      4  -0.002053(    30)     0
 -----------------------------------------------------------------------------------------------
 Internal  Forces:  Max     0.006585554 RMS     0.001752720

 GradGradGradGradGradGradGradGradGradGradGradGradGradGradGradGradGradGrad
 Berny optimization.
 Search for a saddle point.
 Step number   2 out of a maximum of   40
 All quantities printed in internal units (Hartrees-Bohrs-Radians)
 Swaping is turned off.
 Update second derivatives using D2CorN and points    1    2
 ITU=  0  0
     Eigenvalues ---   -0.02607  -0.00217   0.00336   0.02132   0.03830
     Eigenvalues ---    0.07340   0.10166   0.11616   0.12065   0.12171
     Eigenvalues ---    0.13862   0.15315   0.20494   0.22856   0.25686
     Eigenvalues ---    0.29262   0.30506   0.31545   0.33144   0.33374
     Eigenvalues ---    0.34481   0.34677   0.35222   0.35823   0.37276
     Eigenvalues ---    0.38236   0.40694   0.50924   0.58735   0.60209
 Eigenvectors required to have negative eigenvalues:
                          B1        D3        A10       D5        D9
   1                    0.64061  -0.54289  -0.33604   0.29520   0.17662
                          A3        D1        A6        D6        B11
   1                    0.17024   0.13850   0.05774   0.05078   0.04465
 RFO step:  Lambda0=1.645745349D-04 Lambda=-2.59364554D-03.
 Linear search not attempted -- option 19 set.
 Maximum step size (   0.300) exceeded in Quadratic search.
    -- Step size scaled by   0.386
 Variable       Old X    -DE/DX   Delta X   Delta X   Delta X     New X
                                 (Linear)    (Quad)   (Total)
    B1        4.27708   0.00659   0.00000   0.02390   0.02390   4.30098
    B2        2.73847   0.00113   0.00000   0.00023   0.00023   2.73870
    B3        2.84504  -0.00027   0.00000  -0.00189  -0.00189   2.84315
    B4        1.83205  -0.00016   0.00000  -0.00025  -0.00025   1.83180
    B5        2.03657  -0.00006   0.00000   0.00102   0.00102   2.03758
    B6        2.07871  -0.00013   0.00000   0.00088   0.00088   2.07959
    B7        2.07892   0.00046   0.00000   0.00088   0.00088   2.07980
    B8        2.06821   0.00017   0.00000   0.00115   0.00115   2.06936
    B9        2.07247   0.00041   0.00000   0.00047   0.00047   2.07293
   B10        2.06398  -0.00008   0.00000  -0.00170  -0.00170   2.06229
   B11        2.67091   0.00144   0.00000  -0.00308  -0.00308   2.66784
    A1        1.86526  -0.00087   0.00000  -0.00103  -0.00103   1.86423
    A2        2.14221  -0.00022   0.00000   0.00677   0.00677   2.14898
    A3        1.85645   0.00074   0.00000  -0.00308  -0.00308   1.85337
    A4        2.05973   0.00013   0.00000  -0.00164  -0.00164   2.05809
    A5        2.06974  -0.00014   0.00000  -0.00206  -0.00206   2.06769
    A6        2.05026  -0.00017   0.00000  -0.00403  -0.00403   2.04623
    A7        1.92019  -0.00044   0.00000   0.00707   0.00707   1.92726
    A8        1.93117  -0.00003   0.00000   0.00372   0.00372   1.93489
    A9        1.90940  -0.00033   0.00000  -0.00920  -0.00920   1.90020
   A10        1.25872   0.00595   0.00000   0.01215   0.01215   1.27087
    D1       -1.66391   0.00152   0.00000   0.00473   0.00473  -1.65917
    D2        0.82706   0.00075   0.00000   0.02469   0.02469   0.85176
    D3       -3.11200   0.00012   0.00000   0.02320   0.02320  -3.08879
    D4       -2.77398   0.00006   0.00000  -0.01230  -0.01230  -2.78628
    D5       -0.35418  -0.00016   0.00000  -0.02553  -0.02553  -0.37971
    D6        0.80412  -0.00046   0.00000  -0.17151  -0.17151   0.63261
    D7       -1.31823  -0.00064   0.00000  -0.16565  -0.16565  -1.48388
    D8        2.84390  -0.00018   0.00000  -0.17284  -0.17284   2.67106
    D9        1.57667  -0.00205   0.00000  -0.01821  -0.01821   1.55846
         Item               Value     Threshold  Converged?
 Maximum Force            0.006586     0.000015     NO 
 RMS     Force            0.001753     0.000010     NO 
 Maximum Displacement     0.172836     0.000060     NO 
 RMS     Displacement     0.054772     0.000040     NO 
 Predicted change in Energy=-5.573833D-04
 GradGradGradGradGradGradGradGradGradGradGradGradGradGradGradGradGradGrad

 ---------------------------------------------------------------------------------------------------
                            Z-MATRIX (ANGSTROMS AND DEGREES)
   CD    Cent   Atom    N1       Length/X        N2       Alpha/Y        N3        Beta/Z          J
 ---------------------------------------------------------------------------------------------------
      1      1  C 
      2      2  O        1   2.275982(     1)
      3      3  C        1   1.449257(     2)      2  106.813(    12)
      4      4  C        1   1.504530(     3)      3  123.128(    13)      2  -95.064(    22)      0
      5      5  H        2   0.969348(     4)      1  106.190(    14)      3   48.802(    23)      0
      6      6  H        1   1.078242(     5)      3  117.920(    15)      4 -176.975(    24)      0
      7      7  H        3   1.100470(     6)      1  118.470(    16)      4 -159.642(    25)      0
      8      8  H        3   1.100585(     7)      1  117.240(    17)      4  -21.756(    26)      0
      9      9  H        4   1.095056(     8)      1  110.424(    18)      3   36.246(    27)      0
     10     10  H        4   1.096948(     9)      1  110.861(    19)      3  -85.020(    28)      0
     11     11  H        4   1.091315(    10)      1  108.873(    20)      3  153.041(    29)      0
     12     12  O        3   1.411758(    11)      1   72.816(    21)      4   89.293(    30)      0
 ---------------------------------------------------------------------------------------------------
                         Z-Matrix orientation:                         
 ---------------------------------------------------------------------
 Center     Atomic      Atomic             Coordinates (Angstroms)
 Number     Number       Type             X           Y           Z
 ---------------------------------------------------------------------
      1          6           0        0.000000    0.000000    0.000000
      2          8           0        0.000000    0.000000    2.275982
      3          6           0        1.387311    0.000000   -0.419185
      4          6           0       -0.819254   -1.255060    0.131369
      5          1           0        0.613150    0.700449    2.546266
      6          1           0       -0.473490    0.952136    0.178468
      7          1           0        2.009589    0.873722   -0.173393
      8          1           0        1.950834   -0.937292   -0.295846
      9          1           0       -0.200592   -2.077923    0.504598
     10          1           0       -1.256079   -1.539222   -0.833893
     11          1           0       -1.601622   -1.089812    0.874042
     12          8           0        0.599058    0.102466   -1.585898
 ---------------------------------------------------------------------
                    Distance matrix (angstroms):
                    1          2          3          4          5
     1  C    0.000000
     2  O    2.275982   0.000000
     3  C    1.449257   3.031263   0.000000
     4  C    1.504530   2.616432   2.597539   0.000000
     5  H    2.711098   0.969348   3.143860   3.421626   0.000000
     6  H    1.078242   2.351664   2.174012   2.234610   2.617366
     7  H    2.198159   3.286529   1.100470   3.553441   3.062125
     8  H    2.184444   3.361334   1.100585   2.820793   3.542485
     9  H    2.147702   2.737847   2.773549   1.095056   3.542589
    10  H    2.154603   3.690293   3.086858   1.096948   4.464932
    11  H    2.125284   2.391301   3.434217   1.091315   3.302512
    12  O    1.698365   3.909410   1.411758   2.608350   4.175232
                    6          7          8          9         10
     6  H    0.000000
     7  H    2.509111   0.000000
     8  H    3.110025   1.816100   0.000000
     9  H    3.059754   3.749238   2.563275   0.000000
    10  H    2.800747   4.113775   3.306977   1.787683   0.000000
    11  H    2.434350   4.241867   3.743239   1.753778   1.799558
    12  O    2.232775   2.140001   2.138371   3.124694   2.588858
                   11         12
    11  H    0.000000
    12  O    3.509391   0.000000
 Stoichiometry    C3H7O2(1-)
 Framework group  C1[X(C3H7O2)]
 Deg. of freedom    30
 Full point group                 C1      NOp   1
 Largest Abelian subgroup         C1      NOp   1
 Largest concise Abelian subgroup C1      NOp   1
                         Standard orientation:                         
 ---------------------------------------------------------------------
 Center     Atomic      Atomic             Coordinates (Angstroms)
 Number     Number       Type             X           Y           Z
 ---------------------------------------------------------------------
      1          6           0       -0.100671    0.069268   -0.345280
      2          8           0        2.070704   -0.541005   -0.040661
      3          6           0       -0.908856   -0.864156    0.413605
      4          6           0        0.336821    1.404479    0.192699
      5          1           0        2.108462   -1.495862   -0.203320
      6          1           0        0.155022   -0.192781   -1.359458
      7          1           0       -0.906961   -1.923264    0.114740
      8          1           0       -0.903949   -0.759807    1.509221
      9          1           0        0.557426    1.331617    1.262826
     10          1           0       -0.439435    2.163054    0.033684
     11          1           0        1.266242    1.696006   -0.299396
     12          8           0       -1.795775   -0.018559   -0.287394
 ---------------------------------------------------------------------
 Rotational constants (GHZ):      7.8347686      3.3472958      2.6158948
 Standard basis: 6-31++G(d,p) (6D, 7F)
 The following finite field(s) will be applied:
 An electric field of              0.0000  0.0000  0.0025
 There are   137 symmetry adapted basis functions of A   symmetry.
 Integral buffers will be    131072 words long.
 Raffenetti 2 integral format.
 Two-electron integral symmetry is turned on.
   137 basis functions,   216 primitive gaussians,   137 cartesian basis functions
    21 alpha electrons       21 beta electrons
       nuclear repulsion energy       177.8485992952 Hartrees.
 NAtoms=   12 NActive=   12 NUniq=   12 SFac= 1.00D+00 NAtFMM=   50 NAOKFM=F Big=F
 One-electron integrals computed using PRISM.
 PrsmSu:  requested number of processors reduced to:  10 ShMem   1 Linda.
 NBasis=   137 RedAO= T  NBF=   137
 NBsUse=   137 1.00D-06 NBFU=   137
 The nuclear repulsion energy is now       177.8485992952 hartrees.
 Initial guess read from the read-write file.
 B after Tr=     0.000000    0.000000    0.000000
         Rot=    1.000000    0.000000    0.000000    0.000000 Ang=   0.00 deg.
 Initial guess orbital symmetries:
       Occupied  (A) (A) (A) (A) (A) (A) (A) (A) (A) (A) (A) (A)
                 (A) (A) (A) (A) (A) (A) (A) (A) (A)
       Virtual   (A) (A) (A) (A) (A) (A) (A) (A) (A) (A) (A) (A)
                 (A) (A) (A) (A) (A) (A) (A) (A) (A) (A) (A) (A)
                 (A) (A) (A) (A) (A) (A) (A) (A) (A) (A) (A) (A)
                 (A) (A) (A) (A) (A) (A) (A) (A) (A) (A) (A) (A)
                 (A) (A) (A) (A) (A) (A) (A) (A) (A) (A) (A) (A)
                 (A) (A) (A) (A) (A) (A) (A) (A) (A) (A) (A) (A)
                 (A) (A) (A) (A) (A) (A) (A) (A) (A) (A) (A) (A)
                 (A) (A) (A) (A) (A) (A) (A) (A) (A) (A) (A) (A)
                 (A) (A) (A) (A) (A) (A) (A) (A) (A) (A) (A) (A)
                 (A) (A) (A) (A) (A) (A) (A) (A)
 Harris functional with IExCor=  402 diagonalized for initial guess.
 ExpMin= 3.60D-02 ExpMax= 5.48D+03 ExpMxC= 8.25D+02 IAcc=3 IRadAn=         0 AccDes= 0.00D+00
 HarFok:  IExCor=  402 AccDes= 0.00D+00 IRadAn=         0 IDoV= 1
 ScaDFX=  1.000000  1.000000  1.000000  1.000000
 FoFCou: FMM=F IPFlag=           0 FMFlag=      100000 FMFlg1=           0
         NFxFlg=           0 DoJE=T BraDBF=F KetDBF=T FulRan=T
         Omega=  0.000000  0.000000  1.000000  0.000000  0.000000 ICntrl=     500 IOpCl=  0
         NMat0=    1 NMatS0=    1 NMatT0=    0 NMatD0=    1 NMtDS0=    0 NMtDT0=    0
         I1Cent=           4 NGrid=           0.
 Petite list used in FoFCou.
 Requested convergence on RMS density matrix=1.00D-08 within 128 cycles.
 Requested convergence on MAX density matrix=1.00D-06.
 Requested convergence on             energy=1.00D-06.
 No special actions if energy rises.
 SCF Done:  E(RB3LYP) =  -268.938975134     A.U. after   12 cycles
             Convg  =    0.2346D-08             -V/T =  2.0094
 PrsmSu:  requested number of processors reduced to:  10 ShMem   1 Linda.
 PrsmSu:  requested number of processors reduced to:  23 ShMem   1 Linda.
 Calling FoFJK, ICntrl=      2127 FMM=F ISym2X=0 I1Cent= 0 IOpClX= 0 NMat=1 NMatS=1 NMatT=0.
 CoulSu:  requested number of processors reduced to:  16 ShMem   1 Linda.
 ***** Axes restored to original set *****
 -------------------------------------------------------------------
 Center     Atomic                   Forces (Hartrees/Bohr)
 Number     Number              X              Y              Z
 -------------------------------------------------------------------
      1        6          -0.000313081   -0.001297696   -0.003859347
      2        8           0.001589602   -0.000398177    0.004605106
      3        6          -0.000008477    0.000294143    0.001003670
      4        6           0.000386047   -0.000226893    0.000088790
      5        1          -0.000362703    0.000075841    0.000589169
      6        1          -0.000097843   -0.000087538    0.000047164
      7        1          -0.000166602   -0.000056596   -0.000004820
      8        1           0.000089886   -0.000257369    0.000082534
      9        1           0.000676412   -0.000053799   -0.000588839
     10        1          -0.000557753    0.000273934   -0.000247606
     11        1          -0.000236008    0.000348156    0.000016513
     12        8           0.000469169   -0.000609278   -0.001397734
 -------------------------------------------------------------------
 Cartesian Forces:  Max     0.004605106 RMS     0.001136076
 -----------------------------------------------------------------------------------------------
                       Internal Coordinate Forces (Hartree/Bohr or radian)
  Cent   Atom   N1       Length/X         N2         Alpha/Y        N3         Beta/Z          J
 -----------------------------------------------------------------------------------------------
      1  C 
      2  O        1   0.005194(     1)
      3  C        1   0.000459(     2)      2  -0.002114(    12)
      4  C        1  -0.000495(     3)      3  -0.000864(    13)      2  -0.000759(    22)     0
      5  H        2  -0.000010(     4)      1   0.001129(    14)      3   0.000568(    23)     0
      6  H        1  -0.000027(     5)      3   0.000276(    15)      4  -0.000036(    24)     0
      7  H        3  -0.000140(     6)      1  -0.000216(    16)      4  -0.000043(    25)     0
      8  H        3   0.000274(     7)      1  -0.000148(    17)      4  -0.000049(    26)     0
      9  H        4   0.000222(     8)      1  -0.000999(    18)      3  -0.001405(    27)     0
     10  H        4   0.000369(     9)      1  -0.000173(    19)      3  -0.001069(    28)     0
     11  H        4   0.000233(    10)      1  -0.000514(    20)      3   0.000481(    29)     0
     12  O        3   0.000849(    11)      1   0.003084(    21)      4  -0.001781(    30)     0
 -----------------------------------------------------------------------------------------------
 Internal  Forces:  Max     0.005194275 RMS     0.001333590

 GradGradGradGradGradGradGradGradGradGradGradGradGradGradGradGradGradGrad
 Berny optimization.
 Search for a saddle point.
 Step number   3 out of a maximum of   40
 All quantities printed in internal units (Hartrees-Bohrs-Radians)
 Swaping is turned off.
 Update second derivatives using D2CorN and points    1    2    3
 ITU=  0  0  0
     Eigenvalues ---   -0.02585  -0.00139   0.00334   0.02137   0.03801
     Eigenvalues ---    0.07343   0.10151   0.11616   0.12065   0.12172
     Eigenvalues ---    0.13862   0.15315   0.20509   0.22857   0.25685
     Eigenvalues ---    0.29262   0.30507   0.31545   0.33147   0.33373
     Eigenvalues ---    0.34481   0.34677   0.35223   0.35822   0.37277
     Eigenvalues ---    0.38236   0.40693   0.50925   0.58734   0.60213
 Eigenvectors required to have negative eigenvalues:
                          B1        D3        A10       D5        D9
   1                    0.64399  -0.54286  -0.33671   0.29358   0.17519
                          A3        D1        A6        B11       A5
   1                    0.16930   0.14087   0.05755   0.04446   0.03877
 RFO step:  Lambda0=1.712715629D-04 Lambda=-2.31308013D-03.
 Linear search not attempted -- option 19 set.
 Maximum step size (   0.300) exceeded in Quadratic search.
    -- Step size scaled by   0.357
 Variable       Old X    -DE/DX   Delta X   Delta X   Delta X     New X
                                 (Linear)    (Quad)   (Total)
    B1        4.30098   0.00519   0.00000   0.00858   0.00858   4.30957
    B2        2.73870   0.00046   0.00000  -0.00042  -0.00042   2.73828
    B3        2.84315  -0.00049   0.00000  -0.00270  -0.00270   2.84044
    B4        1.83180  -0.00001   0.00000  -0.00012  -0.00012   1.83168
    B5        2.03758  -0.00003   0.00000   0.00084   0.00084   2.03842
    B6        2.07959  -0.00014   0.00000   0.00085   0.00085   2.08043
    B7        2.07980   0.00027   0.00000   0.00084   0.00084   2.08065
    B8        2.06936   0.00022   0.00000   0.00149   0.00149   2.07084
    B9        2.07293   0.00037   0.00000   0.00024   0.00024   2.07317
   B10        2.06229   0.00023   0.00000  -0.00076  -0.00076   2.06153
   B11        2.66784   0.00085   0.00000  -0.00308  -0.00308   2.66475
    A1        1.86423  -0.00211   0.00000  -0.00695  -0.00695   1.85728
    A2        2.14898  -0.00086   0.00000   0.00566   0.00566   2.15464
    A3        1.85337   0.00113   0.00000   0.00918   0.00918   1.86255
    A4        2.05809   0.00028   0.00000  -0.00105  -0.00105   2.05704
    A5        2.06769  -0.00022   0.00000  -0.00333  -0.00333   2.06436
    A6        2.04623  -0.00015   0.00000  -0.00401  -0.00401   2.04221
    A7        1.92726  -0.00100   0.00000   0.00549   0.00549   1.93275
    A8        1.93489  -0.00017   0.00000   0.00172   0.00172   1.93661
    A9        1.90020  -0.00051   0.00000  -0.00867  -0.00867   1.89153
   A10        1.27087   0.00308   0.00000   0.01443   0.01443   1.28531
    D1       -1.65917  -0.00076   0.00000  -0.00776  -0.00776  -1.66693
    D2        0.85176   0.00057   0.00000   0.00892   0.00892   0.86068
    D3       -3.08879  -0.00004   0.00000   0.03212   0.03212  -3.05667
    D4       -2.78628  -0.00004   0.00000  -0.01681  -0.01681  -2.80309
    D5       -0.37971  -0.00005   0.00000  -0.03178  -0.03178  -0.41149
    D6        0.63261  -0.00141   0.00000  -0.17461  -0.17461   0.45800
    D7       -1.48388  -0.00107   0.00000  -0.16567  -0.16567  -1.64955
    D8        2.67106   0.00048   0.00000  -0.16859  -0.16859   2.50248
    D9        1.55846  -0.00178   0.00000  -0.02395  -0.02395   1.53451
         Item               Value     Threshold  Converged?
 Maximum Force            0.005194     0.000015     NO 
 RMS     Force            0.001334     0.000010     NO 
 Maximum Displacement     0.174613     0.000060     NO 
 RMS     Displacement     0.054772     0.000040     NO 
 Predicted change in Energy=-5.445204D-04
 GradGradGradGradGradGradGradGradGradGradGradGradGradGradGradGradGradGrad

 ---------------------------------------------------------------------------------------------------
                            Z-MATRIX (ANGSTROMS AND DEGREES)
   CD    Cent   Atom    N1       Length/X        N2       Alpha/Y        N3        Beta/Z          J
 ---------------------------------------------------------------------------------------------------
      1      1  C 
      2      2  O        1   2.280525(     1)
      3      3  C        1   1.449037(     2)      2  106.414(    12)
      4      4  C        1   1.503099(     3)      3  123.452(    13)      2  -95.508(    22)      0
      5      5  H        2   0.969285(     4)      1  106.716(    14)      3   49.313(    23)      0
      6      6  H        1   1.078686(     5)      3  117.860(    15)      4 -175.134(    24)      0
      7      7  H        3   1.100918(     6)      1  118.279(    16)      4 -160.605(    25)      0
      8      8  H        3   1.101031(     7)      1  117.010(    17)      4  -23.577(    26)      0
      9      9  H        4   1.095842(     8)      1  110.738(    18)      3   26.241(    27)      0
     10     10  H        4   1.097077(     9)      1  110.960(    19)      3  -94.512(    28)      0
     11     11  H        4   1.090915(    10)      1  108.377(    20)      3  143.381(    29)      0
     12     12  O        3   1.410127(    11)      1   73.643(    21)      4   87.921(    30)      0
 ---------------------------------------------------------------------------------------------------
                         Z-Matrix orientation:                         
 ---------------------------------------------------------------------
 Center     Atomic      Atomic             Coordinates (Angstroms)
 Number     Number       Type             X           Y           Z
 ---------------------------------------------------------------------
      1          6           0        0.000000    0.000000    0.000000
      2          8           0        0.000000    0.000000    2.280525
      3          6           0        1.389981    0.000000   -0.409464
      4          6           0       -0.828810   -1.248319    0.118657
      5          1           0        0.605196    0.703934    2.559324
      6          1           0       -0.480514    0.953601    0.152697
      7          1           0        2.005663    0.879379   -0.165234
      8          1           0        1.955604   -0.932564   -0.258919
      9          1           0       -0.193373   -2.118447    0.318571
     10          1           0       -1.395765   -1.431979   -0.802434
     11          1           0       -1.497373   -1.137296    0.973521
     12          8           0        0.627380    0.080939   -1.592827
 ---------------------------------------------------------------------
                    Distance matrix (angstroms):
                    1          2          3          4          5
     1  C    0.000000
     2  O    2.280525   0.000000
     3  C    1.449037   3.027885   0.000000
     4  C    1.503099   2.630380   2.600047   0.000000
     5  H    2.722485   0.969285   3.150414   3.438680   0.000000
     6  H    1.078686   2.380735   2.173506   2.229556   2.651972
     7  H    2.196200   3.282945   1.100918   3.555549   3.068436
     8  H    2.181995   3.338089   1.101031   2.827583   3.527636
     9  H    2.150976   2.893868   2.743148   1.095842   3.691140
    10  H    2.154675   3.674692   3.156798   1.097077   4.457285
    11  H    2.117383   2.289941   3.397484   1.090915   3.213362
    12  O    1.713842   3.924667   1.410127   2.610860   4.198687
                    6          7          8          9         10
     6  H    0.000000
     7  H    2.507522   0.000000
     8  H    3.108330   1.815053   0.000000
     9  H    3.089893   3.749238   2.521491   0.000000
    10  H    2.727811   4.161504   3.431691   1.781471   0.000000
    11  H    2.465685   4.199405   3.672040   1.758417   1.803102
    12  O    2.244064   2.138970   2.137914   3.027272   2.647028
                   11         12
    11  H    0.000000
    12  O    3.547508   0.000000
 Stoichiometry    C3H7O2(1-)
 Framework group  C1[X(C3H7O2)]
 Deg. of freedom    30
 Full point group                 C1      NOp   1
 Largest Abelian subgroup         C1      NOp   1
 Largest concise Abelian subgroup C1      NOp   1
                         Standard orientation:                         
 ---------------------------------------------------------------------
 Center     Atomic      Atomic             Coordinates (Angstroms)
 Number     Number       Type             X           Y           Z
 ---------------------------------------------------------------------
      1          6           0       -0.096392    0.072286   -0.349132
      2          8           0        2.079455   -0.533842   -0.034341
      3          6           0       -0.897650   -0.874070    0.400602
      4          6           0        0.323284    1.411676    0.188650
      5          1           0        2.131926   -1.485645   -0.209933
      6          1           0        0.144147   -0.170150   -1.372329
      7          1           0       -0.889922   -1.928894    0.085473
      8          1           0       -0.875046   -0.789341    1.498136
      9          1           0        0.369287    1.393186    1.283369
     10          1           0       -0.378984    2.196015   -0.119911
     11          1           0        1.330916    1.626028   -0.170277
     12          8           0       -1.805427   -0.028727   -0.270065
 ---------------------------------------------------------------------
 Rotational constants (GHZ):      7.8126593      3.3370982      2.6000019
 Standard basis: 6-31++G(d,p) (6D, 7F)
 The following finite field(s) will be applied:
 An electric field of              0.0000  0.0000  0.0025
 There are   137 symmetry adapted basis functions of A   symmetry.
 Integral buffers will be    131072 words long.
 Raffenetti 2 integral format.
 Two-electron integral symmetry is turned on.
   137 basis functions,   216 primitive gaussians,   137 cartesian basis functions
    21 alpha electrons       21 beta electrons
       nuclear repulsion energy       177.5901088112 Hartrees.
 NAtoms=   12 NActive=   12 NUniq=   12 SFac= 1.00D+00 NAtFMM=   50 NAOKFM=F Big=F
 One-electron integrals computed using PRISM.
 PrsmSu:  requested number of processors reduced to:  10 ShMem   1 Linda.
 NBasis=   137 RedAO= T  NBF=   137
 NBsUse=   137 1.00D-06 NBFU=   137
 The nuclear repulsion energy is now       177.5901088112 hartrees.
 Initial guess read from the read-write file.
 B after Tr=     0.000000    0.000000    0.000000
         Rot=    1.000000    0.000000    0.000000    0.000000 Ang=   0.00 deg.
 Initial guess orbital symmetries:
       Occupied  (A) (A) (A) (A) (A) (A) (A) (A) (A) (A) (A) (A)
                 (A) (A) (A) (A) (A) (A) (A) (A) (A)
       Virtual   (A) (A) (A) (A) (A) (A) (A) (A) (A) (A) (A) (A)
                 (A) (A) (A) (A) (A) (A) (A) (A) (A) (A) (A) (A)
                 (A) (A) (A) (A) (A) (A) (A) (A) (A) (A) (A) (A)
                 (A) (A) (A) (A) (A) (A) (A) (A) (A) (A) (A) (A)
                 (A) (A) (A) (A) (A) (A) (A) (A) (A) (A) (A) (A)
                 (A) (A) (A) (A) (A) (A) (A) (A) (A) (A) (A) (A)
                 (A) (A) (A) (A) (A) (A) (A) (A) (A) (A) (A) (A)
                 (A) (A) (A) (A) (A) (A) (A) (A) (A) (A) (A) (A)
                 (A) (A) (A) (A) (A) (A) (A) (A) (A) (A) (A) (A)
                 (A) (A) (A) (A) (A) (A) (A) (A)
 Harris functional with IExCor=  402 diagonalized for initial guess.
 ExpMin= 3.60D-02 ExpMax= 5.48D+03 ExpMxC= 8.25D+02 IAcc=3 IRadAn=         0 AccDes= 0.00D+00
 HarFok:  IExCor=  402 AccDes= 0.00D+00 IRadAn=         0 IDoV= 1
 ScaDFX=  1.000000  1.000000  1.000000  1.000000
 FoFCou: FMM=F IPFlag=           0 FMFlag=      100000 FMFlg1=           0
         NFxFlg=           0 DoJE=T BraDBF=F KetDBF=T FulRan=T
         Omega=  0.000000  0.000000  1.000000  0.000000  0.000000 ICntrl=     500 IOpCl=  0
         NMat0=    1 NMatS0=    1 NMatT0=    0 NMatD0=    1 NMtDS0=    0 NMtDT0=    0
         I1Cent=           4 NGrid=           0.
 Petite list used in FoFCou.
 Requested convergence on RMS density matrix=1.00D-08 within 128 cycles.
 Requested convergence on MAX density matrix=1.00D-06.
 Requested convergence on             energy=1.00D-06.
 No special actions if energy rises.
 SCF Done:  E(RB3LYP) =  -268.939471210     A.U. after   12 cycles
             Convg  =    0.3142D-08             -V/T =  2.0094
 PrsmSu:  requested number of processors reduced to:  10 ShMem   1 Linda.
 PrsmSu:  requested number of processors reduced to:  23 ShMem   1 Linda.
 Calling FoFJK, ICntrl=      2127 FMM=F ISym2X=0 I1Cent= 0 IOpClX= 0 NMat=1 NMatS=1 NMatT=0.
 CoulSu:  requested number of processors reduced to:  16 ShMem   1 Linda.
 ***** Axes restored to original set *****
 -------------------------------------------------------------------
 Center     Atomic                   Forces (Hartrees/Bohr)
 Number     Number              X              Y              Z
 -------------------------------------------------------------------
      1        6          -0.000503666   -0.001644953   -0.003477081
      2        8           0.001743734    0.000084338    0.003475193
      3        6           0.000212172   -0.000159579    0.001256936
      4        6           0.000996666   -0.000772682   -0.000161336
      5        1          -0.000333324    0.000095362    0.000754722
      6        1          -0.000017396   -0.000071573    0.000222111
      7        1          -0.000233002   -0.000062733   -0.000005234
      8        1           0.000092079   -0.000168982    0.000032259
      9        1           0.000827378    0.000182615   -0.000856610
     10        1          -0.000697263    0.000493127   -0.000074350
     11        1          -0.000712287    0.000458251    0.000032613
     12        8           0.000075027   -0.000440195   -0.000854136
 -------------------------------------------------------------------
 Cartesian Forces:  Max     0.003477081 RMS     0.001028968
 -----------------------------------------------------------------------------------------------
                       Internal Coordinate Forces (Hartree/Bohr or radian)
  Cent   Atom   N1       Length/X         N2         Alpha/Y        N3         Beta/Z          J
 -----------------------------------------------------------------------------------------------
      1  C 
      2  O        1   0.004230(     1)
      3  C        1   0.000019(     2)      2  -0.002755(    12)
      4  C        1  -0.000612(     3)      3  -0.001875(    13)      2  -0.002584(    22)     0
      5  H        2   0.000078(     4)      1   0.001400(    14)      3   0.000552(    23)     0
      6  H        1  -0.000024(     5)      3   0.000209(    15)      4  -0.000377(    24)     0
      7  H        3  -0.000182(     6)      1  -0.000321(    16)      4  -0.000069(    25)     0
      8  H        3   0.000195(     7)      1  -0.000022(    17)      4  -0.000003(    26)     0
      9  H        4   0.000178(     8)      1  -0.001636(    18)      3  -0.001728(    27)     0
     10  H        4   0.000340(     9)      1  -0.000339(    19)      3  -0.001490(    28)     0
     11  H        4   0.000509(    10)      1  -0.000316(    20)      3   0.001292(    29)     0
     12  O        3   0.000651(    11)      1   0.001379(    21)      4  -0.001246(    30)     0
 -----------------------------------------------------------------------------------------------
 Internal  Forces:  Max     0.004229915 RMS     0.001325869

 GradGradGradGradGradGradGradGradGradGradGradGradGradGradGradGradGradGrad
 Berny optimization.
 Search for a saddle point.
 Step number   4 out of a maximum of   40
 All quantities printed in internal units (Hartrees-Bohrs-Radians)
 Swaping is turned off.
[...]
 Electronic               0.000              0.000              0.000
 Translational            0.889              2.981             38.862
 Rotational               0.889              2.981             26.004
 Vibrational             61.759             16.823             14.728
 Vibration     1          0.608              1.936              3.161
 Vibration     2          0.628              1.871              2.365
 Vibration     3          0.639              1.836              2.110
 Vibration     4          0.649              1.805              1.927
 Vibration     5          0.685              1.695              1.482
 Vibration     6          0.703              1.642              1.328
 Vibration     7          0.774              1.450              0.928
 Vibration     8          0.865              1.228              0.634
                       Q            Log10(Q)             Ln(Q)
 Total Bot       0.244396D-29        -29.611906        -68.183933
 Total V=0       0.624653D+14         13.795639         31.765632
 Vib (Bot)       0.889426D-42        -42.050890        -96.825753
 Vib (Bot)    1  0.175864D+01          0.245176          0.564539
 Vib (Bot)    2  0.113915D+01          0.056580          0.130279
 Vib (Bot)    3  0.983830D+00         -0.007080         -0.016302
 Vib (Bot)    4  0.881722D+00         -0.054668         -0.125879
 Vib (Bot)    5  0.662869D+00         -0.178573         -0.411179
 Vib (Bot)    6  0.595181D+00         -0.225351         -0.518890
 Vib (Bot)    7  0.432206D+00         -0.364309         -0.838854
 Vib (Bot)    8  0.319586D+00         -0.495412         -1.140728
 Vib (V=0)       0.227329D+02          1.356655          3.123812
 Vib (V=0)    1  0.232833D+01          0.367045          0.845152
 Vib (V=0)    2  0.174405D+01          0.241558          0.556209
 Vib (V=0)    3  0.160359D+01          0.205095          0.472248
 Vib (V=0)    4  0.151362D+01          0.180018          0.414507
 Vib (V=0)    5  0.133030D+01          0.123949          0.285403
 Vib (V=0)    6  0.127733D+01          0.106303          0.244771
 Vib (V=0)    7  0.116091D+01          0.064798          0.149204
 Vib (V=0)    8  0.109341D+01          0.038783          0.089301
 Electronic      0.100000D+01          0.000000          0.000000
 Translational   0.255526D+08          7.407434         17.056248
 Rotational      0.107535D+06          5.031550         11.585572
 ***** Axes restored to original set *****
 -------------------------------------------------------------------
 Center     Atomic                   Forces (Hartrees/Bohr)
 Number     Number              X              Y              Z
 -------------------------------------------------------------------
      1        6           0.001012075   -0.001339463    0.000379699
      2        8           0.000423270   -0.000572681    0.000000316
      3        6           0.000000220   -0.000098940   -0.000000191
      4        6           0.000000307   -0.000000297   -0.000000726
      5        1           0.000000093   -0.000000077    0.000000042
      6        1           0.000000040    0.000000113    0.000000116
      7        1          -0.000000065    0.000000055   -0.000000016
      8        1          -0.000000042   -0.000000096   -0.000000070
      9        1          -0.000000074    0.000000033    0.000000205
     10        1          -0.000000145   -0.000000076    0.000000110
     11        1          -0.000000057    0.000000223    0.000000154
     12        8           0.000000367    0.000000217   -0.000000353
 -------------------------------------------------------------------
 Cartesian Forces:  Max     0.001339463 RMS     0.000310892
 -----------------------------------------------------------------------------------------------
                       Internal Coordinate Forces (Hartree/Bohr or radian)
  Cent   Atom   N1       Length/X         N2         Alpha/Y        N3         Beta/Z          J
 -----------------------------------------------------------------------------------------------
      1  C 
      2  O        1   0.000000(     1)
      3  C        1   0.000001(     2)      2   0.000000(    12)
      4  C        1   0.000000(     3)      3   0.000000(    13)      2  -0.000001(    22)     0
      5  H        2   0.000000(     4)      1   0.000000(    14)      3   0.000000(    23)     0
      6  H        1   0.000000(     5)      3   0.000000(    15)      4   0.000000(    24)     0
      7  H        3   0.000000(     6)      1   0.000000(    16)      4   0.000000(    25)     0
      8  H        3   0.000000(     7)      1   0.000000(    17)      4   0.000000(    26)     0
      9  H        4   0.000000(     8)      1   0.000000(    18)      3   0.000000(    27)     0
     10  H        4   0.000000(     9)      1   0.000000(    19)      3   0.000000(    28)     0
     11  H        4   0.000000(    10)      1   0.000000(    20)      3   0.000000(    29)     0
     12  O        3   0.000000(    11)      1   0.000001(    21)      4   0.000001(    30)     0
 -----------------------------------------------------------------------------------------------
 Internal  Forces:  Max     0.000001312 RMS     0.000000348

 GradGradGradGradGradGradGradGradGradGradGradGradGradGradGradGradGradGrad
 Berny optimization.
 Search for a saddle point.
 Step number   1 out of a maximum of    2
 All quantities printed in internal units (Hartrees-Bohrs-Radians)
 Swaping is turned off.
 Second derivative matrix not updated -- analytic derivatives used.
 ITU=  0
     Eigenvalues ---   -0.03612   0.00225   0.00396   0.02474   0.03223
     Eigenvalues ---    0.06401   0.08828   0.10939   0.12342   0.12778
     Eigenvalues ---    0.13663   0.15585   0.22074   0.23060   0.26310
     Eigenvalues ---    0.29521   0.30315   0.30718   0.32062   0.33369
     Eigenvalues ---    0.34599   0.34793   0.35104   0.35543   0.36933
     Eigenvalues ---    0.38683   0.40004   0.49919   0.51227   0.55777
 Eigenvectors required to have negative eigenvalues:
                          B1        D3        A10       D5        A3
   1                    0.66957  -0.45969  -0.41045   0.26953   0.16875
                          D9        D1        A6        A2        A5
   1                    0.14592   0.13925   0.08315   0.06867   0.06243
 Angle between quadratic step and forces=  76.47 degrees.
 Linear search not attempted -- option 19 set.
 Variable       Old X    -DE/DX   Delta X   Delta X   Delta X     New X
                                 (Linear)    (Quad)   (Total)
    B1        4.27637   0.00000   0.00000   0.00001   0.00001   4.27638
    B2        2.73930   0.00000   0.00000   0.00000   0.00000   2.73930
    B3        2.83235   0.00000   0.00000   0.00000   0.00000   2.83235
    B4        1.83158   0.00000   0.00000   0.00000   0.00000   1.83158
    B5        2.03801   0.00000   0.00000   0.00000   0.00000   2.03801
    B6        2.08231   0.00000   0.00000   0.00000   0.00000   2.08231
    B7        2.08538   0.00000   0.00000   0.00000   0.00000   2.08538
    B8        2.07123   0.00000   0.00000   0.00000   0.00000   2.07123
    B9        2.07364   0.00000   0.00000   0.00000   0.00000   2.07364
   B10        2.06628   0.00000   0.00000   0.00000   0.00000   2.06628
   B11        2.65605   0.00000   0.00000   0.00000   0.00000   2.65605
    A1        1.84916   0.00000   0.00000   0.00000   0.00000   1.84916
    A2        2.13907   0.00000   0.00000   0.00000   0.00000   2.13908
    A3        1.91937   0.00000   0.00000   0.00000   0.00000   1.91937
    A4        2.05419   0.00000   0.00000   0.00000   0.00000   2.05418
    A5        2.04543   0.00000   0.00000   0.00000   0.00000   2.04543
    A6        2.03108   0.00000   0.00000   0.00000   0.00000   2.03107
    A7        1.92752   0.00000   0.00000   0.00000   0.00000   1.92753
    A8        1.93681   0.00000   0.00000   0.00000   0.00000   1.93681
    A9        1.88203   0.00000   0.00000   0.00000   0.00000   1.88202
   A10        1.34996   0.00000   0.00000   0.00000   0.00000   1.34996
    D1       -1.73811   0.00000   0.00000   0.00000   0.00000  -1.73811
    D2        1.03734   0.00000   0.00000  -0.00006  -0.00006   1.03728
    D3       -2.94624   0.00000   0.00000  -0.00001  -0.00001  -2.94625
    D4       -2.83434   0.00000   0.00000   0.00000   0.00000  -2.83433
    D5       -0.50292   0.00000   0.00000   0.00000   0.00000  -0.50292
    D6        0.06600   0.00000   0.00000   0.00005   0.00005   0.06605
    D7       -2.02479   0.00000   0.00000   0.00004   0.00004  -2.02475
    D8        2.15431   0.00000   0.00000   0.00004   0.00004   2.15435
    D9        1.47232   0.00000   0.00000   0.00000   0.00000   1.47233
         Item               Value     Threshold  Converged?
 Maximum Force            0.000001     0.000015     YES
 RMS     Force            0.000000     0.000010     YES
 Maximum Displacement     0.000063     0.000060     NO 
 RMS     Displacement     0.000018     0.000040     YES
 Predicted change in Energy=-2.229081D-11
 GradGradGradGradGradGradGradGradGradGradGradGradGradGradGradGradGradGrad

 1\1\GINC-C33N07\Freq\RB3LYP\6-31++G(d,p)\C3H7O2(1-)\ROOT\26-Apr-2018\1
 \\#N Geom=AllCheck Guess=TCheck SCRF=Check GenChk RB3LYP/6-31++G(d,p) 
 Freq\\OH-BACK-MID\\-1,1\C\O,1,B1\C,1,B2,2,A1\C,1,B3,3,A2,2,D1,0\H,2,B4
 ,1,A3,3,D2,0\H,1,B5,3,A4,4,D3,0\H,3,B6,1,A5,4,D4,0\H,3,B7,1,A6,4,D5,0\
 H,4,B8,1,A7,3,D6,0\H,4,B9,1,A8,3,D7,0\H,4,B10,1,A9,3,D8,0\O,3,B11,1,A1
 0,4,D9,0\\B1=2.26295578\B2=1.44957458\B3=1.498813\B4=0.9692279\B5=1.07
 847078\B6=1.10191169\B7=1.10353644\B8=1.09604702\B9=1.09732359\B10=1.0
 9343048\B11=1.40552005\A1=105.9490496\A2=122.55989226\A3=109.97205579\
 A4=117.6961559\A5=117.19441516\A6=116.37203502\A7=110.43898994\A8=110.
 97077941\A9=107.83222243\A10=77.34676148\D1=-99.58652079\D2=59.4352993
 9\D3=-168.80711357\D4=-162.39559504\D5=-28.81527332\D6=3.78149709\D7=-
 116.01193302\D8=123.4328368\D9=84.3577836\\Version=EM64L-G09RevB.01\St
 ate=1-A\HF=-268.9402314\RMSD=6.098e-09\RMSF=3.109e-04\ZeroPoint=0.0943
 71\Thermal=0.1012519\Dipole=0.0568934,0.0294442,-1.0550074\DipoleDeriv
 =0.2644271,0.1287964,-0.1578258,0.1643966,0.2480681,0.0203605,-0.56840
 23,-0.0225932,2.2996959,-0.849752,0.1668428,0.0091886,0.1660555,-0.639
 1611,0.0292836,0.1771256,-0.0064965,-1.6380435,0.5527481,0.0018045,-0.
 2204082,-0.0471224,0.4719816,0.028255,0.4477183,-0.0069942,0.2431187,0
 .0795024,-0.1137378,0.0703485,-0.0867576,0.0339248,0.0123498,0.0777375
 ,0.0059469,0.0512687,0.1467666,-0.1971018,-0.0792412,-0.1843738,-0.061
 4381,-0.1330235,-0.039332,-0.0717265,0.1269576,0.0005292,0.0065713,0.0
 228436,0.0100772,-0.0547994,-0.001307,0.032596,0.0225231,-0.0630673,-0
 .159454,-0.1290188,-0.0593147,-0.1977375,-0.1864691,-0.067362,-0.11053
 57,-0.0735354,0.0074257,-0.1280518,0.1059913,-0.0426685,0.2023845,-0.2
 226356,0.0372368,-0.0975987,0.0580105,0.0185817,-0.0338305,0.1469616,0
 .0324732,0.0508438,-0.1366907,-0.0437407,0.0019526,-0.0650539,0.037859
 2,-0.1362053,-0.0371732,-0.1224877,-0.02112,0.015194,0.0107634,-0.1680
 404,-0.0347768,-0.064134,0.0349372,-0.0138831,0.0396098,-0.0146466,0.0
 654757,0.0258894,0.1112288,0.0924614,0.0032561,-0.771617,-0.0660533,0.
 5074823,-0.0419998,-0.5334502,0.0812947,0.1355503,0.1022346,-2.022919\
 Polar=64.889247,2.056398,55.9034869,-5.6598612,1.4211287,87.4635638\PG
 =C01 [X(C3H7O2)]\NImag=1\\0.62860161,-0.04862155,0.63804931,-0.0810559
 7,0.03452446,0.00630720,-0.01478668,-0.00080289,0.00463982,0.12739725,
 -0.00029026,-0.01430008,0.00755453,0.20460535,0.35011054,0.00604896,0.
 00842514,0.02895232,0.08018751,0.13689115,0.08818949,-0.32805835,-0.00
 052697,0.11947775,0.00253544,0.00069004,-0.01441505,0.63298953,0.00431
 241,-0.07250671,-0.00813075,-0.00032946,-0.00162172,0.00111147,0.00294
 824,0.58142472,0.05110299,-0.00857265,0.02223140,-0.00075722,-0.000346
 70,-0.00868906,0.03488829,0.01746759,0.32144429,-0.12344756,-0.0643483
 9,0.00511608,-0.00226232,-0.00418699,-0.00202288,-0.01404379,-0.024739
 54,0.00198154,0.53597495,-0.06921678,-0.19595588,-0.00242079,-0.002560
 98,-0.00319504,-0.00194904,-0.00133975,0.00330061,0.00179214,-0.037495
 44,0.51686127,-0.01305096,-0.00843254,-0.04889983,-0.00324687,-0.00667
 920,-0.00790429,0.00093587,-0.00452743,-0.00788146,-0.00369368,0.01254
 395,0.56171223,-0.00038275,0.00001175,-0.00123663,-0.11799843,-0.19799
 539,-0.08155101,0.00058973,0.00041425,0.00090822,-0.00032892,-0.000896
 42,0.00001938,0.11814195,0.00003245,-0.00057102,-0.00137500,-0.1982505
 7,-0.33678071,-0.13910075,-0.00044841,-0.00041292,-0.00043445,-0.00118
 923,0.00026749,0.00059392,0.19766660,0.33622482,-0.00215299,-0.0039918
 7,0.01024763,-0.07885178,-0.13436562,-0.06746376,-0.00109121,-0.000904
 42,-0.00197293,-0.00265923,-0.00159055,-0.00074435,0.08276117,0.139575
 27,0.06699415,-0.11376071,0.12350518,0.02042529,0.00021740,-0.00109599
 ,0.00014496,-0.01218379,0.02616858,0.00385032,0.00887694,-0.01590295,-
 0.00224271,-0.00020198,0.00015622,-0.00088096,0.11963848,0.12658730,-0
 .30290545,-0.03086629,-0.00085310,0.00231707,-0.00073358,-0.00364496,0
 .00264142,0.00287161,0.01216006,-0.01564410,-0.00233771,0.00004883,-0.
 00003226,0.00042516,-0.12767842,0.30984427,0.00770436,-0.02576440,-0.0
 1581983,-0.00113426,0.00214760,-0.01026926,0.00233262,0.00443048,-0.00
 427493,-0.00155405,-0.00009857,0.00335613,-0.00081589,0.00051859,-0.00
 146015,-0.02089246,0.03079758,0.03623418,-0.01122019,-0.02359207,-0.00
 896871,0.00109615,0.00073709,0.00109213,-0.11347645,-0.09822565,-0.020
 42735,-0.00282696,0.00213769,-0.00192646,-0.00017388,0.00025711,0.0009
 2324,0.00105246,0.00015612,0.00063293,0.12833803,0.00346417,-0.0007392
 4,-0.00328822,0.00086566,0.00041245,0.00096119,-0.09940787,-0.21301190
 ,-0.03808058,-0.00018276,0.00035529,-0.00040249,-0.00026407,0.00044088
 ,0.00055580,-0.00020945,0.00082713,-0.00027477,0.11189376,0.22159033,0
 .00641647,0.01654079,-0.00083861,-0.00034366,-0.00022671,0.00145284,-0
 .02487729,-0.04380082,-0.05565341,0.00261314,-0.00063379,0.00108933,0.
 00011734,0.00003474,-0.00026858,-0.00093661,-0.00067551,0.00003960,0.0
 4068111,0.05078946,0.06413260,-0.01234829,0.02521190,-0.00593064,0.000
 78450,-0.00088731,0.00159353,-0.10181512,0.09181591,-0.00709793,0.0012
 4320,0.00179996,0.00090873,-0.00009707,-0.00001210,0.00006175,-0.00305
 356,-0.00060299,-0.00164469,0.00864546,-0.01380877,0.00190501,0.116278
 07,-0.00190339,-0.00162649,0.00413670,-0.00072906,0.00088080,-0.001545
 07,0.09320564,-0.22695177,0.01586261,-0.00097395,0.00062902,-0.0001758
 4,0.00007135,-0.00005227,0.00021085,-0.00033945,0.00072780,0.00056595,
 0.01226222,-0.02245091,0.00102040,-0.10876762,0.24063630,0.00757030,-0
 .01606096,-0.00251814,-0.00031366,0.00037643,0.00093472,-0.01122099,0.
 02233103,-0.04692668,-0.00130744,0.00014159,0.00021391,-0.00001958,-0.
 00000327,0.00022662,0.00320306,0.00026308,0.00070377,0.00342347,-0.004
 74653,0.00442913,0.02436575,-0.02961925,0.05302174,0.00966163,-0.01616
 020,-0.00378680,0.00027551,0.00008137,0.00006431,0.00154302,-0.0018769
 7,0.00023600,-0.13110393,0.11882201,0.03473274,0.00015266,0.00006166,0
 .00008620,-0.00152899,-0.00299634,0.00025933,0.00010251,0.00019521,-0.
 00003937,0.00019894,0.00063045,-0.00043017,0.14097088,0.01707563,-0.02
 613218,-0.00724182,-0.00063215,0.00033298,-0.00049791,0.00239128,0.000
 59000,-0.00096298,0.11402175,-0.20638110,-0.04723573,-0.00000037,-0.00
 000668,-0.00009428,-0.00371273,-0.00293379,0.00045556,-0.00005115,0.00
 058027,-0.00035317,-0.00130530,0.00078821,0.00025561,-0.12571345,0.228
 83566,0.00120341,0.00191968,-0.00083820,-0.00097850,-0.00038529,-0.000
 73421,0.00027151,-0.00013158,0.00067428,0.03446372,-0.04989262,-0.0601
 5086,-0.00052823,0.00013798,-0.00031298,0.00033570,0.00035591,0.000678
 36,-0.00021327,0.00006941,-0.00002020,-0.00029430,-0.00002260,-0.00002
 203,-0.03792797,0.05402393,0.05874129,-0.01747020,0.00085113,-0.010048
 60,0.00004368,-0.00041633,0.00016075,-0.00046129,-0.00329252,-0.003379
 02,-0.18549664,0.01551990,-0.12574484,0.00018120,0.00032120,-0.0000090
 3,0.00091190,-0.00023753,0.00049477,-0.00089973,-0.00035753,0.00105402
 ,0.00057314,-0.00009039,-0.00013133,-0.01347753,0.00121148,-0.01190913
 ,0.20294431,-0.02488327,0.00284655,-0.01509122,-0.00046596,-0.00076114
 ,-0.00089762,-0.00003509,-0.00365094,-0.00269866,0.01580511,-0.0487253
 6,0.01201893,0.00000738,0.00022557,-0.00063927,0.00084161,0.00090838,0
 .00017869,-0.00127520,0.00011590,0.00058609,-0.00025159,0.00020790,-0.
 00005506,0.01826171,-0.00172237,0.01788114,-0.01337126,0.05124661,0.00
 364437,0.00185876,-0.00101825,-0.00105991,-0.00214743,-0.00038915,0.00
 171670,0.00058696,0.00003563,-0.12821586,0.01114254,-0.15909054,-0.000
 18709,-0.00048436,-0.00109248,-0.00030063,-0.00044482,0.00016412,0.000
 29932,0.00025212,-0.00001546,-0.00014011,0.00008947,-0.00001415,0.0068
 3907,0.00001957,0.00531593,0.14110524,-0.01348786,0.17042959,-0.007608
 45,-0.00196541,0.01851960,-0.00114898,-0.00080732,-0.00141903,-0.00128
 345,-0.00055319,0.00105893,-0.08167078,-0.00740950,0.09190062,0.000658
 00,0.00118181,0.00000270,0.00031724,-0.00013877,-0.00040222,-0.0000573
 7,-0.00014315,0.00021257,-0.00000459,-0.00006170,-0.00002164,-0.007005
 61,-0.00303872,0.01612986,0.01066258,0.00286357,-0.02320264,0.08802489
 ,-0.00880629,-0.00102577,0.02525072,-0.00077821,-0.00135366,-0.0014631
 0,-0.00033712,-0.00092121,0.00190118,-0.00747350,-0.04970603,0.0280905
 7,0.00095243,0.00042932,-0.00025119,0.00045619,0.00006719,-0.00096651,
 -0.00010450,-0.00011866,-0.00001325,-0.00017845,0.00021431,-0.00031042
 ,0.00854708,0.00399471,-0.02391534,-0.00102392,-0.00141006,0.00301009,
 0.01237874,0.05184609,0.00261154,0.00248543,-0.00049339,-0.00270414,-0
 .00273417,-0.00091844,-0.00063444,0.00030505,-0.00070227,0.09416047,0.
 02931029,-0.27479808,0.00011750,-0.00020184,-0.00247947,0.00026701,0.0
 0008703,0.00003666,0.00001338,-0.00006755,0.00012529,0.00008545,-0.000
 02077,0.00006969,0.00072472,0.00029399,-0.00288879,0.00656094,0.001699
 56,-0.01594051,-0.10130360,-0.03144465,0.29757965,-0.00918006,0.006437
 52,-0.05715118,0.00384646,-0.00043428,0.01011582,-0.06633548,0.0033579
 4,-0.06236477,-0.00491420,-0.00345776,0.02140819,-0.00054050,0.0002232
 7,0.00181015,-0.00028539,-0.00280020,0.01501955,-0.01058004,-0.0020451
 8,-0.02680271,-0.01040469,0.00669589,-0.02511778,0.00021091,-0.0002462
 8,-0.00055280,0.00248858,0.00250297,-0.00049846,-0.00088348,-0.0036324
 5,0.00010117,0.09657789,0.00224958,-0.02513303,-0.00305232,-0.00006863
 ,0.00395851,-0.00120188,0.00650497,-0.06887957,0.01120088,-0.00139712,
 -0.00180616,0.01654357,-0.00001634,0.00026779,0.00107012,-0.00218879,0
 .00418234,-0.01199020,-0.00419543,0.01199847,-0.02326823,0.00698635,0.
 00699710,0.02742775,0.00014746,0.00205429,-0.00004060,0.00088576,0.000
 71897,-0.00039504,-0.00230635,-0.00201621,0.00028762,-0.00660145,0.067
 65750,0.00995753,-0.00293186,0.00268770,0.00456266,-0.00008460,-0.0231
 6120,-0.10738377,0.01126242,-0.21828487,0.00111820,0.00165485,-0.00690
 220,0.00041482,0.00073917,-0.00167370,-0.00297297,0.00025754,-0.009388
 66,-0.01552979,-0.00576783,-0.01447253,-0.01381255,0.00949757,-0.01011
 858,-0.00075805,0.00133722,-0.00044260,0.00184622,0.00050529,0.0016152
 6,-0.00147514,0.00011190,0.00040967,0.12403283,-0.01658168,0.27973170\
 \-0.00101207,0.00133946,-0.00037970,-0.00042327,0.00057268,-0.00000032
 ,-0.00000022,0.00009894,0.00000019,-0.00000031,0.00000030,0.00000073,-
 0.00000009,0.00000008,-0.00000004,-0.00000004,-0.00000011,-0.00000012,
 0.00000006,-0.00000006,0.00000002,0.00000004,0.00000010,0.00000007,0.0
 0000007,-0.00000003,-0.00000020,0.00000014,0.00000008,-0.00000011,0.00
 000006,-0.00000022,-0.00000015,-0.00000037,-0.00000022,0.00000035\\\@


 THERE'S NOTHING SO GREAT AS THE GREAT OUTDOORS.

                                       -- ZIGGY
 Job cpu time:  0 days  0 hours  6 minutes 53.2 seconds.
 File lengths (MBytes):  RWF=   1312 Int=      0 D2E=      0 Chk=     32 Scr=     32
 Normal termination of Gaussian 09 at Thu Apr 26 21:40:38 2018.
