 Entering Gaussian System, Link 0=g09
 Input=OH-term-field-2.gjf
 Output=OH-term-field-2.log
 Initial command:
 /share/home/zxchen/g09/l1.exe /scratch/zxchen/Gau-25037.inp -scrdir=/scratch/zxchen/
 Entering Link 1 = /share/home/zxchen/g09/l1.exe PID=     25038.
  
 Copyright (c) 1988,1990,1992,1993,1995,1998,2003,2009,2010,
            Gaussian, Inc.  All Rights Reserved.
  
 This is part of the Gaussian(R) 09 program.  It is based on
 the Gaussian(R) 03 system (copyright 2003, Gaussian, Inc.),
 the Gaussian(R) 98 system (copyright 1998, Gaussian, Inc.),
 the Gaussian(R) 94 system (copyright 1995, Gaussian, Inc.),
 the Gaussian 92(TM) system (copyright 1992, Gaussian, Inc.),
 the Gaussian 90(TM) system (copyright 1990, Gaussian, Inc.),
 the Gaussian 88(TM) system (copyright 1988, Gaussian, Inc.),
 the Gaussian 86(TM) system (copyright 1986, Carnegie Mellon
 University), and the Gaussian 82(TM) system (copyright 1983,
 Carnegie Mellon University). Gaussian is a federally registered
 trademark of Gaussian, Inc.
  
 This software contains proprietary and confidential information,
 including trade secrets, belonging to Gaussian, Inc.
  
 This software is provided under written license and may be
 used, copied, transmitted, or stored only in accord with that
 written license.
  
 The following legend is applicable only to US Government
 contracts under FAR:
  
                    RESTRICTED RIGHTS LEGEND
  
 Use, reproduction and disclosure by the US Government is
 subject to restrictions as set forth in subparagraphs (a)
 and (c) of the Commercial Computer Software - Restricted
 Rights clause in FAR 52.227-19.
  
 Gaussian, Inc.
 340 Quinnipiac St., Bldg. 40, Wallingford CT 06492
  
  
 ---------------------------------------------------------------
 Warning -- This program may not be used in any manner that
 competes with the business of Gaussian, Inc. or will provide
 assistance to any competitor of Gaussian, Inc.  The licensee
 of this program is prohibited from giving any competitor of
 Gaussian, Inc. access to this program.  By using this program,
 the user acknowledges that Gaussian, Inc. is engaged in the
 business of creating and licensing software in the field of
 computational chemistry and represents and warrants to the
 licensee that it is not a competitor of Gaussian, Inc. and that
 it will not use this program in any manner prohibited above.
 ---------------------------------------------------------------
  

 Cite this work as:
 Gaussian 09, Revision B.01,
 M. J. Frisch, G. W. Trucks, H. B. Schlegel, G. E. Scuseria, 
 M. A. Robb, J. R. Cheeseman, G. Scalmani, V. Barone, B. Mennucci, 
 G. A. Petersson, H. Nakatsuji, M. Caricato, X. Li, H. P. Hratchian, 
 A. F. Izmaylov, J. Bloino, G. Zheng, J. L. Sonnenberg, M. Hada, 
 M. Ehara, K. Toyota, R. Fukuda, J. Hasegawa, M. Ishida, T. Nakajima, 
 Y. Honda, O. Kitao, H. Nakai, T. Vreven, J. A. Montgomery, Jr., 
 J. E. Peralta, F. Ogliaro, M. Bearpark, J. J. Heyd, E. Brothers, 
 K. N. Kudin, V. N. Staroverov, T. Keith, R. Kobayashi, J. Normand, 
 K. Raghavachari, A. Rendell, J. C. Burant, S. S. Iyengar, J. Tomasi, 
 M. Cossi, N. Rega, J. M. Millam, M. Klene, J. E. Knox, J. B. Cross, 
 V. Bakken, C. Adamo, J. Jaramillo, R. Gomperts, R. E. Stratmann, 
 O. Yazyev, A. J. Austin, R. Cammi, C. Pomelli, J. W. Ochterski, 
 R. L. Martin, K. Morokuma, V. G. Zakrzewski, G. A. Voth, 
 P. Salvador, J. J. Dannenberg, S. Dapprich, A. D. Daniels, 
 O. Farkas, J. B. Foresman, J. V. Ortiz, J. Cioslowski, 
 and D. J. Fox, Gaussian, Inc., Wallingford CT, 2010.
 
 ******************************************
 Gaussian 09:  EM64L-G09RevB.01 12-Aug-2010
                12-Mar-2018 
 ******************************************
 %chk=OH-term-field-2.chk
 %nprocshared=24
 Will use up to   24 processors via shared memory.
 ----------------------------------------------------------------------
 # field=z+25 nosymm opt=(ts,calcall,maxcycle=300,noeigen,z-matrix) fre
 q rb3lyp/6-31++g(d,p)
 ----------------------------------------------------------------------
 1/5=1,6=300,10=4,11=1,14=-1,18=40,26=3,38=1/1,3;
 2/12=2,15=1,17=6,18=5,29=3,40=1/2;
 3/5=1,6=6,7=1111,11=2,14=3,15=25,16=1,25=1,30=1,71=2,74=-5,116=1/1,2,3;
 4//1;
 5/5=2,38=5/2;
 8/6=4,10=90,11=11/1;
 11/6=1,8=1,9=11,15=111,16=1,31=1/1,2,10;
 10/6=1,31=1/2;
 6/7=2,8=2,9=2,10=2,18=1,28=1/1;
 7/10=1,25=1,30=1/1,2,3,16;
 1/5=1,6=300,10=4,11=1,14=-1,18=40/3(3);
 2/15=1,29=3/2;
 7/8=1,9=1,25=1,30=1,44=-1/16;
 99//99;
 2/15=1,29=3/2;
 3/5=1,6=6,7=1111,11=2,14=3,15=25,16=1,25=1,30=1,71=2,74=-5,116=1/1,2,3;
 4/5=5,16=3/1;
 5/5=2,38=5/2;
 8/6=4,10=90,11=11/1;
 11/6=1,8=1,9=11,15=111,16=1,31=1/1,2,10;
 10/6=1,31=1/2;
 7/10=1,25=1,30=1/1,2,3,16;
 1/5=1,6=300,10=4,11=1,14=-1,18=40/3(-8);
 2/15=1,29=3/2;
 6/7=2,8=2,9=2,10=2,18=1,19=2,28=1/1;
 7/8=1,9=1,25=1,30=1,44=-1/16;
 99//99;
 ------------
 OH-BACK-TERM
 ------------
 Symbolic Z-matrix:
 Charge = -1 Multiplicity = 1
 C
 O                    1    B1
 H                    1    B2       2    A1
 H                    2    B3       1    A2       3    D1       0
 H                    1    B4       2    A3       4    D2       0
 H                    1    B5       2    A4       4    D3       0
 H                    1    B6       2    A5       4    D4       0
 H                    1    B7       2    A6       4    D5       0
 H                    1    B8       2    A7       4    D6       0
 C                    1    B9       2    A8       4    D7       0
 C                    1    B10      2    A9       10   D8       0
 O                    11   B11      1    A10      2    D9       0
       Variables:
  B1                    2.25423                  
  B2                    1.07782                  
  B3                    0.97006                  
  B4                    1.07769                  
  B5                    2.17907                  
  B6                    3.45388                  
  B7                    3.07848                  
  B8                    2.7293                   
  B9                    2.58474                  
  B10                   1.44948                  
  B11                   1.4269                   
  A1                   77.17131                  
  A2                  121.80476                  
  A3                   72.89897                  
  A4                  101.11477                  
  A5                  112.26176                  
  A6                   81.32536                  
  A7                  102.44585                  
  A8                  100.92745                  
  A9                  111.43693                  
  A10                  66.71126                  
  D1                  -85.29871                  
  D2                  149.14306                  
  D3                   58.10185                  
  D4                    9.55448                  
  D5                    7.1631                   
  D6                  -20.9578                   
  D7                    3.08872                  
  D8                   29.30895                  
  D9                  177.68197                  
 

 GradGradGradGradGradGradGradGradGradGradGradGradGradGradGradGradGradGrad
 Berny optimization.
 Initialization pass.
                       ----------------------------
                       !    Initial Parameters    !
                       ! (Angstroms and Degrees)  !
 ----------------------                            ----------------------
 !      Name          Value   Derivative information (Atomic Units)     !
 ------------------------------------------------------------------------
 !       B1          2.2542   calculate D2E/DX2 analytically            !
 !       B2          1.0778   calculate D2E/DX2 analytically            !
 !       B3          0.9701   calculate D2E/DX2 analytically            !
 !       B4          1.0777   calculate D2E/DX2 analytically            !
 !       B5          2.1791   calculate D2E/DX2 analytically            !
 !       B6          3.4539   calculate D2E/DX2 analytically            !
 !       B7          3.0785   calculate D2E/DX2 analytically            !
 !       B8          2.7293   calculate D2E/DX2 analytically            !
 !       B9          2.5847   calculate D2E/DX2 analytically            !
 !       B10         1.4495   calculate D2E/DX2 analytically            !
 !       B11         1.4269   calculate D2E/DX2 analytically            !
 !       A1         77.1713   calculate D2E/DX2 analytically            !
 !       A2        121.8048   calculate D2E/DX2 analytically            !
 !       A3         72.899    calculate D2E/DX2 analytically            !
 !       A4        101.1148   calculate D2E/DX2 analytically            !
 !       A5        112.2618   calculate D2E/DX2 analytically            !
 !       A6         81.3254   calculate D2E/DX2 analytically            !
 !       A7        102.4459   calculate D2E/DX2 analytically            !
 !       A8        100.9274   calculate D2E/DX2 analytically            !
 !       A9        111.4369   calculate D2E/DX2 analytically            !
 !       A10        66.7113   calculate D2E/DX2 analytically            !
 !       D1        -85.2987   calculate D2E/DX2 analytically            !
 !       D2        149.1431   calculate D2E/DX2 analytically            !
 !       D3         58.1018   calculate D2E/DX2 analytically            !
 !       D4          9.5545   calculate D2E/DX2 analytically            !
 !       D5          7.1631   calculate D2E/DX2 analytically            !
 !       D6        -20.9578   calculate D2E/DX2 analytically            !
 !       D7          3.0887   calculate D2E/DX2 analytically            !
 !       D8         29.309    calculate D2E/DX2 analytically            !
 !       D9        177.682    calculate D2E/DX2 analytically            !
 ------------------------------------------------------------------------
 Trust Radius=3.00D-01 FncErr=1.00D-07 GrdErr=1.00D-06
 Number of steps in this run=    100 maximum allowed number of steps=    100.
 Search for a saddle point of order  1.
 GradGradGradGradGradGradGradGradGradGradGradGradGradGradGradGradGradGrad

 ---------------------------------------------------------------------------------------------------
                            Z-MATRIX (ANGSTROMS AND DEGREES)
   CD    Cent   Atom    N1       Length/X        N2       Alpha/Y        N3        Beta/Z          J
 ---------------------------------------------------------------------------------------------------
      1      1  C 
      2      2  O        1   2.254231(     1)
      3      3  H        1   1.077821(     2)      2   77.171(    12)
      4      4  H        2   0.970061(     3)      1  121.805(    13)      3  -85.299(    22)      0
      5      5  H        1   1.077690(     4)      2   72.899(    14)      4  149.143(    23)      0
      6      6  H        1   2.179074(     5)      2  101.115(    15)      4   58.102(    24)      0
      7      7  H        1   3.453881(     6)      2  112.262(    16)      4    9.554(    25)      0
      8      8  H        1   3.078483(     7)      2   81.325(    17)      4    7.163(    26)      0
      9      9  H        1   2.729304(     8)      2  102.446(    18)      4  -20.958(    27)      0
     10     10  C        1   2.584744(     9)      2  100.927(    19)      4    3.089(    28)      0
     11     11  C        1   1.449482(    10)      2  111.437(    20)     10   29.309(    29)      0
     12     12  O       11   1.426896(    11)      1   66.711(    21)      2  177.682(    30)      0
 ---------------------------------------------------------------------------------------------------
                         Z-Matrix orientation:                         
 ---------------------------------------------------------------------
 Center     Atomic      Atomic             Coordinates (Angstroms)
 Number     Number       Type             X           Y           Z
 ---------------------------------------------------------------------
      1          6           0        0.000000    0.000000    0.000000
      2          8           0        0.000000    0.000000    2.254231
      3          1           0        1.050917    0.000000    0.239316
      4          1           0        0.067569   -0.821632    2.765479
      5          1           0       -0.599001    0.837966    0.316903
      6          1           0       -1.716598   -1.274832   -0.420071
      7          1           0       -0.270428   -3.184978   -1.308463
      8          1           0       -0.130719   -3.040459    0.464307
      9          1           0        1.154058   -2.402344   -0.588211
     10          6           0        0.071418   -2.536872   -0.489979
     11          6           0       -0.627093   -1.194619   -0.529752
     12          8           0       -0.207508   -0.281252   -1.542541
 ---------------------------------------------------------------------
                    Distance matrix (angstroms):
                    1          2          3          4          5
     1  C    0.000000
     2  O    2.254231   0.000000
     3  H    1.077821   2.272512   0.000000
     4  H    2.885744   0.970061   2.832588   0.000000
     5  H    1.077690   2.194135   1.852144   3.032178   0.000000
     6  H    2.179074   3.424003   3.117551   3.679181   2.501214
     7  H    3.453881   4.786440   3.779637   4.721933   4.351305
     8  H    3.078483   3.530624   3.269752   3.202796   3.909373
     9  H    2.729304   3.896483   2.542970   3.863463   3.793686
    10  C    2.584744   3.737848   2.815494   3.679683   3.534127
    11  C    1.449482   3.093691   2.198704   3.388248   2.202048
    12  O    1.581643   3.812826   2.199489   4.350484   2.205323
                    6          7          8          9         10
     6  H    0.000000
     7  H    2.555251   0.000000
     8  H    2.532701   1.784129   0.000000
     9  H    3.088725   1.777762   1.779224   0.000000
    10  C    2.189665   1.098552   1.097780   1.095380   0.000000
    11  C    1.097946   2.166825   2.154453   2.152793   1.513652
    12  O    2.127086   2.913825   3.412705   2.695114   2.504697
                   11         12
    11  C    0.000000
    12  O    1.426896   0.000000
 Symmetry turned off by external request.
 Stoichiometry    C3H7O2(1-)
 Framework group  C1[X(C3H7O2)]
 Deg. of freedom    30
 Full point group                 C1      NOp   1
 Rotational constants (GHZ):      7.0122549      3.1573569      2.3618558
 Standard basis: 6-31++G(d,p) (6D, 7F)
 The following finite field(s) will be applied:
 An electric field of              0.0000  0.0000  0.0025
 Integral buffers will be    131072 words long.
 Raffenetti 2 integral format.
 Two-electron integral symmetry is turned off.
   137 basis functions,   216 primitive gaussians,   137 cartesian basis functions
    21 alpha electrons       21 beta electrons
       nuclear repulsion energy       175.5757520213 Hartrees.
 NAtoms=   12 NActive=   12 NUniq=   12 SFac= 1.00D+00 NAtFMM=   50 NAOKFM=F Big=F
 One-electron integrals computed using PRISM.
 PrsmSu:  requested number of processors reduced to:  10 ShMem   1 Linda.
 NBasis=   137 RedAO= T  NBF=   137
 NBsUse=   137 1.00D-06 NBFU=   137
 The nuclear repulsion energy is now       175.5806860679 hartrees.
 Harris functional with IExCor=  402 diagonalized for initial guess.
 ExpMin= 3.60D-02 ExpMax= 5.48D+03 ExpMxC= 8.25D+02 IAcc=3 IRadAn=         0 AccDes= 0.00D+00
 HarFok:  IExCor=  402 AccDes= 0.00D+00 IRadAn=         0 IDoV= 1
 ScaDFX=  1.000000  1.000000  1.000000  1.000000
 FoFCou: FMM=F IPFlag=           0 FMFlag=      100000 FMFlg1=           0
         NFxFlg=           0 DoJE=T BraDBF=F KetDBF=T FulRan=T
         Omega=  0.000000  0.000000  1.000000  0.000000  0.000000 ICntrl=     500 IOpCl=  0
         NMat0=    1 NMatS0=    1 NMatT0=    0 NMatD0=    1 NMtDS0=    0 NMtDT0=    0
         I1Cent=           4 NGrid=           0.
 Symmetry not used in FoFCou.
 Requested convergence on RMS density matrix=1.00D-08 within 128 cycles.
 Requested convergence on MAX density matrix=1.00D-06.
 Requested convergence on             energy=1.00D-06.
 No special actions if energy rises.
 SCF Done:  E(RB3LYP) =  -268.948442032     A.U. after   15 cycles
             Convg  =    0.3396D-08             -V/T =  2.0092
 Range of M.O.s used for correlation:     1   137
 NBasis=   137 NAE=    21 NBE=    21 NFC=     0 NFV=     0
 NROrb=    137 NOA=    21 NOB=    21 NVA=   116 NVB=   116

 **** Warning!!: The largest alpha MO coefficient is  0.29682823D+02

 PrsmSu:  requested number of processors reduced to:  10 ShMem   1 Linda.
 PrsmSu:  requested number of processors reduced to:  18 ShMem   1 Linda.
 Symmetrizing basis deriv contribution to polar:
 IMax=3 JMax=2 DiffMx= 0.00D+00
 G2DrvN: will do     4 centers at a time, making    4 passes doing MaxLOS=2.
 Estimated number of processors is:   15
 Calling FoFCou, ICntrl=  3107 FMM=F I1Cent=   0 AccDes= 0.00D+00.
 CoulSu:  requested number of processors reduced to:  15 ShMem   1 Linda.
 Calling FoFCou, ICntrl=  3107 FMM=F I1Cent=   0 AccDes= 0.00D+00.
 CoulSu:  requested number of processors reduced to:  15 ShMem   1 Linda.
 Calling FoFCou, ICntrl=  3107 FMM=F I1Cent=   0 AccDes= 0.00D+00.
 CoulSu:  requested number of processors reduced to:  15 ShMem   1 Linda.
 Calling FoFCou, ICntrl=  3107 FMM=F I1Cent=   0 AccDes= 0.00D+00.
 CoulSu:  requested number of processors reduced to:  15 ShMem   1 Linda.
 FoFDir/FoFCou used for L=0 through L=2.
 End of G2Drv Frequency-dependent properties file   721 does not exist.
 End of G2Drv Frequency-dependent properties file   722 does not exist.
          IDoAtm=111111111111
          Differentiating once with respect to electric field.
                with respect to dipole field.
          Differentiating once with respect to nuclear coordinates.
 PrRfSu:  requested number of processors reduced to:  15 ShMem   1 Linda.
 CalDSu:  requested number of processors reduced to:  19 ShMem   1 Linda.
          There are    39 degrees of freedom in the 1st order CPHF.  IDoFFX=5.
     36 vectors produced by pass  0 Test12= 6.25D-15 2.56D-09 XBig12= 7.50D+01 3.33D+00.
 AX will form    36 AO Fock derivatives at one time.
 PrRfSu:  requested number of processors reduced to:  15 ShMem   1 Linda.
 CalDSu:  requested number of processors reduced to:  20 ShMem   1 Linda.
     36 vectors produced by pass  1 Test12= 6.25D-15 2.56D-09 XBig12= 2.51D+01 1.61D+00.
 PrRfSu:  requested number of processors reduced to:  15 ShMem   1 Linda.
 CalDSu:  requested number of processors reduced to:  20 ShMem   1 Linda.
     36 vectors produced by pass  2 Test12= 6.25D-15 2.56D-09 XBig12= 4.06D-01 1.86D-01.
 PrRfSu:  requested number of processors reduced to:  15 ShMem   1 Linda.
 CalDSu:  requested number of processors reduced to:  20 ShMem   1 Linda.
     36 vectors produced by pass  3 Test12= 6.25D-15 2.56D-09 XBig12= 1.63D-03 7.34D-03.
 PrRfSu:  requested number of processors reduced to:  15 ShMem   1 Linda.
 CalDSu:  requested number of processors reduced to:  20 ShMem   1 Linda.
     36 vectors produced by pass  4 Test12= 6.25D-15 2.56D-09 XBig12= 4.86D-06 2.75D-04.
 PrRfSu:  requested number of processors reduced to:  15 ShMem   1 Linda.
 CalDSu:  requested number of processors reduced to:  20 ShMem   1 Linda.
     34 vectors produced by pass  5 Test12= 6.25D-15 2.56D-09 XBig12= 6.50D-09 9.68D-06.
 PrRfSu:  requested number of processors reduced to:  16 ShMem   1 Linda.
 CalDSu:  requested number of processors reduced to:  20 ShMem   1 Linda.
      4 vectors produced by pass  6 Test12= 6.25D-15 2.56D-09 XBig12= 6.39D-12 3.44D-07.
      3 vectors produced by pass  7 Test12= 6.25D-15 2.56D-09 XBig12= 2.01D-14 2.73D-08.
      1 vectors produced by pass  8 Test12= 6.25D-15 2.56D-09 XBig12= 3.01D-16 4.16D-09.
 Inverted reduced A of dimension   222 with in-core refinement.
 Isotropic polarizability for W=    0.000000       67.30 Bohr**3.
 End of Minotr Frequency-dependent properties file   721 does not exist.
 End of Minotr Frequency-dependent properties file   722 does not exist.

 **********************************************************************

            Population analysis using the SCF density.

 **********************************************************************

 Alpha  occ. eigenvalues --  -18.97177 -18.85445 -10.07591 -10.05722 -10.04514
 Alpha  occ. eigenvalues --   -0.85842  -0.65715  -0.59356  -0.49482  -0.42362
 Alpha  occ. eigenvalues --   -0.33231  -0.29322  -0.27791  -0.24909  -0.20616
 Alpha  occ. eigenvalues --   -0.19154  -0.15156  -0.13049  -0.09383  -0.01154
 Alpha  occ. eigenvalues --   -0.00870
 Alpha virt. eigenvalues --    0.10451   0.12808   0.13052   0.14006   0.15653
 Alpha virt. eigenvalues --    0.15827   0.17022   0.19308   0.20582   0.21200
 Alpha virt. eigenvalues --    0.23677   0.24232   0.24871   0.25521   0.26522
 Alpha virt. eigenvalues --    0.27833   0.28160   0.29467   0.30302   0.30601
 Alpha virt. eigenvalues --    0.31966   0.33925   0.37491   0.38250   0.39310
 Alpha virt. eigenvalues --    0.39605   0.40430   0.41840   0.42963   0.46570
 Alpha virt. eigenvalues --    0.47238   0.48384   0.49125   0.50925   0.52842
 Alpha virt. eigenvalues --    0.53833   0.55998   0.57694   0.77285   0.82139
 Alpha virt. eigenvalues --    0.84821   0.88499   0.91592   0.91981   0.94343
 Alpha virt. eigenvalues --    1.02350   1.05071   1.09745   1.11045   1.14258
 Alpha virt. eigenvalues --    1.21810   1.22905   1.25048   1.26264   1.28700
 Alpha virt. eigenvalues --    1.35471   1.39693   1.42222   1.46367   1.48428
 Alpha virt. eigenvalues --    1.50750   1.53490   1.56443   1.58228   1.65703
 Alpha virt. eigenvalues --    1.73786   1.78128   1.82362   1.85751   1.87142
 Alpha virt. eigenvalues --    1.91275   1.98662   1.99768   2.02421   2.07304
 Alpha virt. eigenvalues --    2.11937   2.13967   2.17532   2.20777   2.24255
 Alpha virt. eigenvalues --    2.26104   2.27549   2.30780   2.33383   2.35571
 Alpha virt. eigenvalues --    2.40893   2.48071   2.52892   2.58931   2.68073
 Alpha virt. eigenvalues --    2.73159   2.76520   2.81296   2.84591   2.87960
 Alpha virt. eigenvalues --    2.89626   2.90892   2.92612   2.95793   2.97663
 Alpha virt. eigenvalues --    3.01534   3.05867   3.20152   3.22001   3.38287
 Alpha virt. eigenvalues --    3.49632   3.58950   3.60634   3.64477   3.70281
 Alpha virt. eigenvalues --    3.74504   4.39812   4.43579   4.57695   4.70420
 Alpha virt. eigenvalues --    4.83898
          Condensed to atoms (all electrons):
              1          2          3          4          5          6
     1  C    5.853513  -0.056616   0.427830  -0.007546   0.368811   0.002145
     2  O   -0.056616   9.032242   0.015634   0.122254  -0.030040  -0.003363
     3  H    0.427830   0.015634   0.637028  -0.006732  -0.078366  -0.014185
     4  H   -0.007546   0.122254  -0.006732   0.654938  -0.000689   0.005036
     5  H    0.368811  -0.030040  -0.078366  -0.000689   0.551609   0.009171
     6  H    0.002145  -0.003363  -0.014185   0.005036   0.009171   0.684742
     7  H   -0.000970   0.007055   0.012101  -0.000988  -0.007651  -0.017178
     8  H    0.043679   0.033334  -0.020773  -0.013761   0.003288   0.010501
     9  H    0.008773  -0.024032  -0.014429   0.006703   0.010597   0.013776
    10  C    0.393593   0.155423   0.049628  -0.037779  -0.063587  -0.107234
    11  C   -1.025641  -0.274540  -0.124821   0.079121   0.132005   0.375690
    12  O    0.137694   0.042230  -0.044210  -0.009478  -0.060625  -0.048125
              7          8          9         10         11         12
     1  C   -0.000970   0.043679   0.008773   0.393593  -1.025641   0.137694
     2  O    0.007055   0.033334  -0.024032   0.155423  -0.274540   0.042230
     3  H    0.012101  -0.020773  -0.014429   0.049628  -0.124821  -0.044210
     4  H   -0.000988  -0.013761   0.006703  -0.037779   0.079121  -0.009478
     5  H   -0.007651   0.003288   0.010597  -0.063587   0.132005  -0.060625
     6  H   -0.017178   0.010501   0.013776  -0.107234   0.375690  -0.048125
     7  H    0.618970  -0.057717  -0.043924   0.429786  -0.061302  -0.014953
     8  H   -0.057717   0.650103  -0.017383   0.451271  -0.215709   0.028039
     9  H   -0.043924  -0.017383   0.550067   0.348826   0.004342   0.004473
    10  C    0.429786   0.451271   0.348826   6.284041  -1.261534  -0.020003
    11  C   -0.061302  -0.215709   0.004342  -1.261534   8.293044  -0.146790
    12  O   -0.014953   0.028039   0.004473  -0.020003  -0.146790   8.589438
 Mulliken atomic charges:
              1
     1  C   -0.145266
     2  O   -1.019580
     3  H    0.161295
     4  H    0.208920
     5  H    0.165477
     6  H    0.089026
     7  H    0.136772
     8  H    0.105129
     9  H    0.152211
    10  C   -0.622431
    11  C    0.226135
    12  O   -0.457690
 Sum of Mulliken atomic charges =  -1.00000
 Mulliken charges with hydrogens summed into heavy atoms:
              1
     1  C    0.181507
     2  O   -0.810660
    10  C   -0.228319
    11  C    0.315162
    12  O   -0.457690
 Sum of Mulliken charges with hydrogens summed into heavy atoms =  -1.00000
 APT atomic charges:
              1
     1  C    0.706250
     2  O   -1.048884
     3  H    0.006764
     4  H    0.056466
     5  H    0.001295
     6  H   -0.097570
     7  H   -0.061757
     8  H   -0.040936
     9  H   -0.023558
    10  C    0.068000
    11  C    0.400680
    12  O   -0.966750
 Sum of APT charges=  -1.00000
 APT Atomic charges with hydrogens summed into heavy atoms:
              1
     1  C    0.714309
     2  O   -0.992418
     3  H    0.000000
     4  H    0.000000
     5  H    0.000000
     6  H    0.000000
     7  H    0.000000
     8  H    0.000000
     9  H    0.000000
    10  C   -0.058251
    11  C    0.303110
    12  O   -0.966750
 Sum of APT charges=  -1.00000
 Electronic spatial extent (au):  <R**2>=            663.1212
 Charge=             -1.0000 electrons
 Dipole moment (field-independent basis, Debye):
    X=              0.2545    Y=             -0.6313    Z=             -5.2778  Tot=              5.3215
 Quadrupole moment (field-independent basis, Debye-Ang):
   XX=            -35.7496   YY=            -35.6435   ZZ=            -63.4894
   XY=              0.0699   XZ=             -0.0993   YZ=             -4.1044
 Traceless Quadrupole moment (field-independent basis, Debye-Ang):
   XX=              9.2112   YY=              9.3173   ZZ=            -18.5285
   XY=              0.0699   XZ=             -0.0993   YZ=             -4.1044
 Octapole moment (field-independent basis, Debye-Ang**2):
  XXX=             13.8472  YYY=             96.0658  ZZZ=            -49.5611  XYY=              3.1579
  XXY=             29.6296  XXZ=             -7.1020  XZZ=              6.2109  YZZ=             19.6792
  YYZ=             -2.0455  XYZ=             -1.2353
 Hexadecapole moment (field-independent basis, Debye-Ang**3):
 XXXX=            -89.0845 YYYY=           -474.7338 ZZZZ=           -584.8664 XXXY=            -11.2987
 XXXZ=            -11.5652 YYYX=             -7.4345 YYYZ=            -51.4653 ZZZX=            -10.7917
 ZZZY=            -81.4155 XXYY=            -89.8977 XXZZ=            -98.9416 YYZZ=           -142.3245
 XXYZ=            -14.8450 YYXZ=             -2.6636 ZZXY=             -2.6183
 N-N= 1.755806860679D+02 E-N=-9.885485381015D+02  KE= 2.664935548774D+02
  Exact polarizability:  59.344   1.981  64.167   1.693   5.193  78.379
 Approx polarizability:  75.104   3.976  78.443   1.296   0.519  98.277
 PrsmSu:  requested number of processors reduced to:  10 ShMem   1 Linda.
 PrsmSu:  requested number of processors reduced to:  11 ShMem   1 Linda.
 Calling FoFJK, ICntrl=    100127 FMM=F ISym2X=0 I1Cent= 0 IOpClX= 0 NMat=1 NMatS=1 NMatT=0.
 CoulSu:  requested number of processors reduced to:  11 ShMem   1 Linda.
 -------------------------------------------------------------------
 Center     Atomic                   Forces (Hartrees/Bohr)
 Number     Number              X              Y              Z
 -------------------------------------------------------------------
      1        6          -0.000056301    0.000156457   -0.014227727
      2        8           0.000056202   -0.000212604    0.016727492
      3        1          -0.000000187    0.000056730   -0.000000071
      4        1          -0.000000050   -0.000000322    0.000000370
      5        1           0.000000214   -0.000000202   -0.000000141
      6        1           0.000000141   -0.000000029   -0.000000026
      7        1           0.000000026   -0.000000093   -0.000000144
      8        1           0.000000076    0.000000308   -0.000000488
      9        1           0.000000013   -0.000000064   -0.000000071
     10        6          -0.000000062   -0.000000141    0.000000679
     11        6          -0.000000253   -0.000000050    0.000000214
     12        8           0.000000180    0.000000010   -0.000000087
 -------------------------------------------------------------------
 Cartesian Forces:  Max     0.016727492 RMS     0.003660284
 -----------------------------------------------------------------------------------------------
                       Internal Coordinate Forces (Hartree/Bohr or radian)
  Cent   Atom   N1       Length/X         N2         Alpha/Y        N3         Beta/Z          J
 -----------------------------------------------------------------------------------------------
      1  C 
      2  O        1   0.016728(     1)
      3  H        1   0.000000(     2)      2   0.000000(    12)
      4  H        2   0.000000(     3)      1   0.000000(    13)      3   0.000000(    22)     0
      5  H        1   0.000000(     4)      2   0.000000(    14)      4   0.000000(    23)     0
      6  H        1   0.000000(     5)      2   0.000000(    15)      4   0.000000(    24)     0
      7  H        1   0.000000(     6)      2   0.000001(    16)      4   0.000000(    25)     0
      8  H        1   0.000000(     7)      2   0.000003(    17)      4   0.000000(    26)     0
      9  H        1   0.000000(     8)      2   0.000000(    18)      4   0.000000(    27)     0
     10  C        1   0.000000(     9)      2  -0.000003(    19)      4   0.000001(    28)     0
     11  C        1   0.000000(    10)      2   0.000000(    20)     10   0.000000(    29)     0
     12  O       11   0.000000(    11)      1   0.000000(    21)      2   0.000000(    30)     0
 -----------------------------------------------------------------------------------------------
 Internal  Forces:  Max     0.016727862 RMS     0.003054076

 GradGradGradGradGradGradGradGradGradGradGradGradGradGradGradGradGradGrad
 Berny optimization.
 Search for a saddle point.
 Step number   1 out of a maximum of  100
 All quantities printed in internal units (Hartrees-Bohrs-Radians)
 Swaping is turned off.
 Second derivative matrix not updated -- analytic derivatives used.
 ITU=  0
     Eigenvalues ---   -0.00907  -0.00007   0.00864   0.01128   0.01392
     Eigenvalues ---    0.01655   0.02201   0.06470   0.08045   0.11994
     Eigenvalues ---    0.12658   0.15680   0.24672   0.29141   0.30498
     Eigenvalues ---    0.37149   0.37933   0.38513   0.50600   0.53691
     Eigenvalues ---    0.73931   0.90518   1.23994   2.60280   2.95376
     Eigenvalues ---    3.34383   5.59302   7.21360  17.76311  19.83292
 Eigenvectors required to have negative eigenvalues:
                          A2        B1        A3        A1        A10
   1                    0.62803   0.61019  -0.27370  -0.26722  -0.24456
                          D1        D2        B11       A9        B7
   1                    0.09011  -0.07841   0.07214  -0.04381   0.03421
 RFO step:  Lambda0=6.635122160D-03 Lambda=-5.95045205D-03.
 Linear search not attempted -- option 19 set.
 Maximum step size (   0.300) exceeded in Quadratic search.
    -- Step size scaled by   0.354
 Variable       Old X    -DE/DX   Delta X   Delta X   Delta X     New X
                                 (Linear)    (Quad)   (Total)
    B1        4.25988   0.01673   0.00000  -0.01449  -0.01449   4.24539
    B2        2.03679   0.00000   0.00000  -0.00126  -0.00126   2.03552
    B3        1.83315   0.00000   0.00000  -0.00051  -0.00051   1.83264
    B4        2.03654   0.00000   0.00000  -0.00165  -0.00165   2.03489
    B5        4.11785   0.00000   0.00000  -0.00459  -0.00459   4.11326
    B6        6.52689   0.00000   0.00000  -0.00362  -0.00362   6.52327
    B7        5.81749   0.00000   0.00000  -0.00142  -0.00142   5.81607
    B8        5.15764   0.00000   0.00000   0.00369   0.00369   5.16132
    B9        4.88446   0.00000   0.00000  -0.00225  -0.00225   4.88221
   B10        2.73912   0.00000   0.00000  -0.00039  -0.00039   2.73873
   B11        2.69644   0.00000   0.00000  -0.01414  -0.01414   2.68230
    A1        1.34689   0.00000   0.00000   0.04372   0.04372   1.39061
    A2        2.12589   0.00000   0.00000  -0.28241  -0.28241   1.84349
    A3        1.27233   0.00000   0.00000   0.05791   0.05791   1.33024
    A4        1.76479   0.00000   0.00000  -0.01357  -0.01357   1.75121
    A5        1.95934   0.00000   0.00000  -0.02005  -0.02005   1.93928
    A6        1.41940   0.00000   0.00000  -0.02047  -0.02047   1.39892
    A7        1.78802   0.00000   0.00000  -0.02159  -0.02159   1.76643
    A8        1.76152   0.00000   0.00000  -0.02103  -0.02103   1.74049
    A9        1.94494   0.00000   0.00000  -0.00826  -0.00826   1.93668
   A10        1.16433   0.00000   0.00000   0.04075   0.04075   1.20508
    D1       -1.48874   0.00000   0.00000  -0.02162  -0.02162  -1.51037
    D2        2.60304   0.00000   0.00000   0.01486   0.01486   2.61790
    D3        1.01407   0.00000   0.00000  -0.00403  -0.00403   1.01004
    D4        0.16676   0.00000   0.00000  -0.00073  -0.00073   0.16603
    D5        0.12502   0.00000   0.00000   0.00438   0.00438   0.12940
    D6       -0.36578   0.00000   0.00000   0.00307   0.00307  -0.36272
    D7        0.05391   0.00000   0.00000   0.00105   0.00105   0.05496
    D8        0.51154   0.00000   0.00000  -0.00426  -0.00426   0.50728
    D9        3.10114   0.00000   0.00000   0.01075   0.01075   3.11189
         Item               Value     Threshold  Converged?
 Maximum Force            0.016728     0.000450     NO 
 RMS     Force            0.003054     0.000300     NO 
 Maximum Displacement     0.282408     0.001800     NO 
 RMS     Displacement     0.054772     0.001200     NO 
 Predicted change in Energy= 2.653998D-04
 GradGradGradGradGradGradGradGradGradGradGradGradGradGradGradGradGradGrad

 ---------------------------------------------------------------------------------------------------
                            Z-MATRIX (ANGSTROMS AND DEGREES)
   CD    Cent   Atom    N1       Length/X        N2       Alpha/Y        N3        Beta/Z          J
 ---------------------------------------------------------------------------------------------------
      1      1  C 
      2      2  O        1   2.246561(     1)
      3      3  H        1   1.077152(     2)      2   79.676(    12)
      4      4  H        2   0.969790(     3)      1  105.624(    13)      3  -86.538(    22)      0
      5      5  H        1   1.076819(     4)      2   76.217(    14)      4  149.995(    23)      0
      6      6  H        1   2.176644(     5)      2  100.337(    15)      4   57.871(    24)      0
      7      7  H        1   3.451965(     6)      2  111.113(    16)      4    9.513(    25)      0
      8      8  H        1   3.077731(     7)      2   80.152(    17)      4    7.414(    26)      0
      9      9  H        1   2.731255(     8)      2  101.209(    18)      4  -20.782(    27)      0
     10     10  C        1   2.583555(     9)      2   99.723(    19)      4    3.149(    28)      0
     11     11  C        1   1.449276(    10)      2  110.964(    20)     10   29.065(    29)      0
     12     12  O       11   1.419411(    11)      1   69.046(    21)      2  178.298(    30)      0
 ---------------------------------------------------------------------------------------------------
                         Z-Matrix orientation:                         
 ---------------------------------------------------------------------
 Center     Atomic      Atomic             Coordinates (Angstroms)
 Number     Number       Type             X           Y           Z
 ---------------------------------------------------------------------
      1          6           0        0.000000    0.000000    0.000000
      2          8           0        0.000000    0.000000    2.246561
      3          1           0        1.059714    0.000000    0.193038
      4          1           0        0.056403   -0.932252    2.507747
      5          1           0       -0.576727    0.872414    0.256548
      6          1           0       -1.741295   -1.246245   -0.390572
      7          1           0       -0.339437   -3.202306   -1.243415
      8          1           0       -0.208970   -3.025175    0.526380
      9          1           0        1.100140   -2.442861   -0.530920
     10          6           0        0.013926   -2.546410   -0.436302
     11          6           0       -0.650977   -1.186494   -0.518517
     12          8           0       -0.229470   -0.336389   -1.574159
 ---------------------------------------------------------------------
                    Distance matrix (angstroms):
                    1          2          3          4          5
     1  C    0.000000
     2  O    2.246561   0.000000
     3  H    1.077152   2.310833   0.000000
     4  H    2.676018   0.969790   2.689536   0.000000
     5  H    1.076819   2.248082   1.855554   2.953908   0.000000
     6  H    2.176644   3.397014   3.120797   3.424990   2.502738
     7  H    3.451965   4.748675   3.778331   4.402392   4.348511
     8  H    3.077731   3.486313   3.297326   2.894230   3.924189
     9  H    2.731255   3.859052   2.548200   3.550328   3.797768
    10  C    2.583555   3.698939   2.823818   3.357788   3.537976
    11  C    1.449276   3.078506   2.200123   3.118221   2.201215
    12  O    1.625974   3.842358   2.213174   4.135062   2.221100
                    6          7          8          9         10
     6  H    0.000000
     7  H    2.553179   0.000000
     8  H    2.520598   1.783416   0.000000
     9  H    3.086315   1.776736   1.780658   0.000000
    10  C    2.184793   1.098406   1.098024   1.095234   0.000000
    11  C    1.099424   2.164724   2.160539   2.155232   1.515990
    12  O    2.124696   2.887035   3.412076   2.700637   2.497630
                   11         12
    11  C    0.000000
    12  O    1.419411   0.000000
 Symmetry turned off by external request.
 Stoichiometry    C3H7O2(1-)
 Framework group  C1[X(C3H7O2)]
 Deg. of freedom    30
 Full point group                 C1      NOp   1
 Rotational constants (GHZ):      7.0104173      3.1907026      2.3788091
 Standard basis: 6-31++G(d,p) (6D, 7F)
 The following finite field(s) will be applied:
 An electric field of              0.0000  0.0000  0.0025
 Integral buffers will be    131072 words long.
 Raffenetti 2 integral format.
 Two-electron integral symmetry is turned off.
   137 basis functions,   216 primitive gaussians,   137 cartesian basis functions
    21 alpha electrons       21 beta electrons
       nuclear repulsion energy       175.6405796437 Hartrees.
 NAtoms=   12 NActive=   12 NUniq=   12 SFac= 1.00D+00 NAtFMM=   50 NAOKFM=F Big=F
 One-electron integrals computed using PRISM.
 PrsmSu:  requested number of processors reduced to:  10 ShMem   1 Linda.
 NBasis=   137 RedAO= T  NBF=   137
 NBsUse=   137 1.00D-06 NBFU=   137
 The nuclear repulsion energy is now       175.6451579954 hartrees.
 Initial guess read from the read-write file.
 B after Tr=     0.000000    0.000000    0.000000
         Rot=    1.000000    0.000000    0.000000    0.000000 Ang=   0.00 deg.
 Harris functional with IExCor=  402 diagonalized for initial guess.
 ExpMin= 3.60D-02 ExpMax= 5.48D+03 ExpMxC= 8.25D+02 IAcc=3 IRadAn=         0 AccDes= 0.00D+00
 HarFok:  IExCor=  402 AccDes= 0.00D+00 IRadAn=         0 IDoV= 1
 ScaDFX=  1.000000  1.000000  1.000000  1.000000
 FoFCou: FMM=F IPFlag=           0 FMFlag=      100000 FMFlg1=           0
         NFxFlg=           0 DoJE=T BraDBF=F KetDBF=T FulRan=T
         Omega=  0.000000  0.000000  1.000000  0.000000  0.000000 ICntrl=     500 IOpCl=  0
         NMat0=    1 NMatS0=    1 NMatT0=    0 NMatD0=    1 NMtDS0=    0 NMtDT0=    0
         I1Cent=           4 NGrid=           0.
 Symmetry not used in FoFCou.
 Requested convergence on RMS density matrix=1.00D-08 within 128 cycles.
 Requested convergence on MAX density matrix=1.00D-06.
 Requested convergence on             energy=1.00D-06.
 No special actions if energy rises.
 SCF Done:  E(RB3LYP) =  -268.948015920     A.U. after   12 cycles
             Convg  =    0.4422D-08             -V/T =  2.0093
 Range of M.O.s used for correlation:     1   137
 NBasis=   137 NAE=    21 NBE=    21 NFC=     0 NFV=     0
 NROrb=    137 NOA=    21 NOB=    21 NVA=   116 NVB=   116

 **** Warning!!: The largest alpha MO coefficient is  0.28576282D+02

 PrsmSu:  requested number of processors reduced to:  10 ShMem   1 Linda.
 PrsmSu:  requested number of processors reduced to:  18 ShMem   1 Linda.
 Symmetrizing basis deriv contribution to polar:
 IMax=3 JMax=2 DiffMx= 0.00D+00
 G2DrvN: will do     4 centers at a time, making    4 passes doing MaxLOS=2.
 Estimated number of processors is:   15
 Calling FoFCou, ICntrl=  3107 FMM=F I1Cent=   0 AccDes= 0.00D+00.
 CoulSu:  requested number of processors reduced to:  15 ShMem   1 Linda.
 Calling FoFCou, ICntrl=  3107 FMM=F I1Cent=   0 AccDes= 0.00D+00.
 CoulSu:  requested number of processors reduced to:  15 ShMem   1 Linda.
 Calling FoFCou, ICntrl=  3107 FMM=F I1Cent=   0 AccDes= 0.00D+00.
 CoulSu:  requested number of processors reduced to:  15 ShMem   1 Linda.
 Calling FoFCou, ICntrl=  3107 FMM=F I1Cent=   0 AccDes= 0.00D+00.
 CoulSu:  requested number of processors reduced to:  15 ShMem   1 Linda.
 FoFDir/FoFCou used for L=0 through L=2.
 End of G2Drv Frequency-dependent properties file   721 does not exist.
 End of G2Drv Frequency-dependent properties file   722 does not exist.
          IDoAtm=111111111111
          Differentiating once with respect to electric field.
                with respect to dipole field.
          Differentiating once with respect to nuclear coordinates.
 PrRfSu:  requested number of processors reduced to:  15 ShMem   1 Linda.
 CalDSu:  requested number of processors reduced to:  19 ShMem   1 Linda.
          There are    39 degrees of freedom in the 1st order CPHF.  IDoFFX=5.
     36 vectors produced by pass  0 Test12= 6.25D-15 2.56D-09 XBig12= 8.91D+01 3.83D+00.
 AX will form    36 AO Fock derivatives at one time.
 PrRfSu:  requested number of processors reduced to:  15 ShMem   1 Linda.
 CalDSu:  requested number of processors reduced to:  20 ShMem   1 Linda.
     36 vectors produced by pass  1 Test12= 6.25D-15 2.56D-09 XBig12= 3.58D+01 1.66D+00.
 PrRfSu:  requested number of processors reduced to:  15 ShMem   1 Linda.
 CalDSu:  requested number of processors reduced to:  20 ShMem   1 Linda.
     36 vectors produced by pass  2 Test12= 6.25D-15 2.56D-09 XBig12= 3.82D-01 1.50D-01.
 PrRfSu:  requested number of processors reduced to:  15 ShMem   1 Linda.
 CalDSu:  requested number of processors reduced to:  20 ShMem   1 Linda.
     36 vectors produced by pass  3 Test12= 6.25D-15 2.56D-09 XBig12= 1.31D-03 5.36D-03.
 PrRfSu:  requested number of processors reduced to:  15 ShMem   1 Linda.
 CalDSu:  requested number of processors reduced to:  20 ShMem   1 Linda.
     36 vectors produced by pass  4 Test12= 6.25D-15 2.56D-09 XBig12= 3.18D-06 2.39D-04.
 PrRfSu:  requested number of processors reduced to:  15 ShMem   1 Linda.
 CalDSu:  requested number of processors reduced to:  20 ShMem   1 Linda.
     33 vectors produced by pass  5 Test12= 6.25D-15 2.56D-09 XBig12= 4.11D-09 9.99D-06.
 PrRfSu:  requested number of processors reduced to:  16 ShMem   1 Linda.
 CalDSu:  requested number of processors reduced to:  20 ShMem   1 Linda.
      4 vectors produced by pass  6 Test12= 6.25D-15 2.56D-09 XBig12= 3.86D-12 2.57D-07.
      3 vectors produced by pass  7 Test12= 6.25D-15 2.56D-09 XBig12= 2.08D-14 2.73D-08.
      1 vectors produced by pass  8 Test12= 6.25D-15 2.56D-09 XBig12= 1.59D-16 3.23D-09.
 Inverted reduced A of dimension   221 with in-core refinement.
 Isotropic polarizability for W=    0.000000       68.45 Bohr**3.
 End of Minotr Frequency-dependent properties file   721 does not exist.
 End of Minotr Frequency-dependent properties file   722 does not exist.
 PrsmSu:  requested number of processors reduced to:  10 ShMem   1 Linda.
 PrsmSu:  requested number of processors reduced to:  11 ShMem   1 Linda.
 Calling FoFJK, ICntrl=    100127 FMM=F ISym2X=0 I1Cent= 0 IOpClX= 0 NMat=1 NMatS=1 NMatT=0.
 CoulSu:  requested number of processors reduced to:  11 ShMem   1 Linda.
 -------------------------------------------------------------------
 Center     Atomic                   Forces (Hartrees/Bohr)
 Number     Number              X              Y              Z
 -------------------------------------------------------------------
      1        6           0.000078944    0.001835265   -0.009900308
      2        8           0.000233349   -0.001039284    0.011549412
      3        1           0.000129432   -0.000210570    0.000257134
      4        1          -0.000026194    0.000301706    0.001058401
      5        1          -0.000182438   -0.000090129    0.000128598
      6        1          -0.000026046    0.000071263    0.000002914
      7        1          -0.000034936    0.000006381    0.000014452
      8        1          -0.000000611   -0.000098992    0.000083658
      9        1           0.000163088    0.000055767    0.000008223
     10        6          -0.000061205   -0.000067426   -0.000010830
     11        6          -0.000283817   -0.000551564   -0.000055037
     12        8           0.000010434   -0.000212419   -0.000636619
 -------------------------------------------------------------------
 Cartesian Forces:  Max     0.011549412 RMS     0.002572351
 -----------------------------------------------------------------------------------------------
                       Internal Coordinate Forces (Hartree/Bohr or radian)
  Cent   Atom   N1       Length/X         N2         Alpha/Y        N3         Beta/Z          J
 -----------------------------------------------------------------------------------------------
      1  C 
      2  O        1   0.012608(     1)
      3  H        1   0.000173(     2)      2  -0.000468(    12)
      4  H        2  -0.000007(     3)      1   0.002017(    13)      3   0.000623(    22)     0
      5  H        1   0.000055(     4)      2  -0.000242(    14)      4  -0.000399(    23)     0
      6  H        1  -0.000020(     5)      2   0.000003(    15)      4   0.000296(    24)     0
      7  H        1  -0.000008(     6)      2  -0.000082(    16)      4   0.000216(    25)     0
      8  H        1   0.000112(     7)      2  -0.000381(    17)      4  -0.000036(    26)     0
      9  H        1   0.000014(     8)      2  -0.000058(    18)      4  -0.000869(    27)     0
     10  C        1   0.000068(     9)      2  -0.000003(    19)      4   0.000155(    28)     0
     11  C        1   0.000996(    10)      2  -0.000518(    20)     10  -0.000141(    29)     0
     12  O       11   0.000349(    11)      1   0.001499(    21)      2   0.000318(    30)     0
 -----------------------------------------------------------------------------------------------
 Internal  Forces:  Max     0.012607813 RMS     0.002371511

 GradGradGradGradGradGradGradGradGradGradGradGradGradGradGradGradGradGrad
 Berny optimization.
 Search for a saddle point.
 Step number   2 out of a maximum of  100
 All quantities printed in internal units (Hartrees-Bohrs-Radians)
 Swaping is turned off.
 Second derivative matrix not updated -- analytic derivatives used.
 ITU=  0  0
     Eigenvalues ---   -0.02382   0.00005   0.00965   0.01100   0.01418
     Eigenvalues ---    0.01989   0.02381   0.06439   0.07963   0.11142
     Eigenvalues ---    0.11881   0.15980   0.25233   0.28823   0.29866
     Eigenvalues ---    0.37035   0.38088   0.38618   0.50261   0.50858
     Eigenvalues ---    0.65313   0.90520   1.23046   2.63817   2.95746
     Eigenvalues ---    3.37899   5.56389   7.23684  17.78584  19.90109
 Eigenvectors required to have negative eigenvalues:
                          B1        A10       A3        A1        A2
   1                    0.75849  -0.36742  -0.32967  -0.32319   0.17481
                          A9        B11       D1        D2        B7
   1                   -0.12538   0.08890   0.08293  -0.07641   0.07176
 RFO step:  Lambda0=3.500650139D-03 Lambda=-6.91414085D-04.
 Linear search not attempted -- option 19 set.
 Maximum step size (   0.300) exceeded in Quadratic search.
    -- Step size scaled by   0.769
 Variable       Old X    -DE/DX   Delta X   Delta X   Delta X     New X
                                 (Linear)    (Quad)   (Total)
    B1        4.24539   0.01261   0.00000  -0.16197  -0.16197   4.08341
    B2        2.03552   0.00017   0.00000  -0.00286  -0.00286   2.03266
    B3        1.83264  -0.00001   0.00000  -0.00129  -0.00129   1.83135
    B4        2.03489   0.00006   0.00000  -0.00313  -0.00313   2.03176
    B5        4.11326  -0.00002   0.00000  -0.01406  -0.01406   4.09920
    B6        6.52327  -0.00001   0.00000   0.00582   0.00582   6.52908
    B7        5.81607   0.00011   0.00000  -0.07078  -0.07078   5.74529
    B8        5.16132   0.00001   0.00000   0.01078   0.01078   5.17210
    B9        4.88221   0.00007   0.00000  -0.01695  -0.01695   4.86527
   B10        2.73873   0.00100   0.00000   0.00181   0.00181   2.74054
   B11        2.68230   0.00035   0.00000  -0.03438  -0.03438   2.64791
    A1        1.39061  -0.00047   0.00000   0.10798   0.10798   1.49859
    A2        1.84349   0.00202   0.00000  -0.08232  -0.08232   1.76116
    A3        1.33024  -0.00024   0.00000   0.12080   0.12080   1.45103
    A4        1.75121   0.00000   0.00000   0.00510   0.00510   1.75631
    A5        1.93928  -0.00008   0.00000  -0.01621  -0.01621   1.92307
    A6        1.39892  -0.00038   0.00000  -0.01703  -0.01703   1.38189
    A7        1.76643  -0.00006   0.00000  -0.00568  -0.00568   1.76075
    A8        1.74049   0.00000   0.00000  -0.00911  -0.00911   1.73138
    A9        1.93668  -0.00052   0.00000   0.03293   0.03293   1.96961
   A10        1.20508   0.00150   0.00000   0.12251   0.12251   1.32759
    D1       -1.51037   0.00062   0.00000  -0.00335  -0.00335  -1.51372
    D2        2.61790  -0.00040   0.00000   0.05499   0.05499   2.67289
    D3        1.01004   0.00030   0.00000   0.02495   0.02495   1.03499
    D4        0.16603   0.00022   0.00000   0.02954   0.02954   0.19557
    D5        0.12940  -0.00004   0.00000   0.02963   0.02963   0.15902
    D6       -0.36272  -0.00087   0.00000   0.02841   0.02841  -0.33430
    D7        0.05496   0.00016   0.00000   0.02741   0.02741   0.08237
    D8        0.50728  -0.00014   0.00000  -0.00220  -0.00220   0.50508
    D9        3.11189   0.00032   0.00000   0.01140   0.01140   3.12328
         Item               Value     Threshold  Converged?
 Maximum Force            0.012608     0.000450     NO 
 RMS     Force            0.002372     0.000300     NO 
 Maximum Displacement     0.161971     0.001800     NO 
 RMS     Displacement     0.054772     0.001200     NO 
 Predicted change in Energy= 1.457415D-03
 GradGradGradGradGradGradGradGradGradGradGradGradGradGradGradGradGradGrad

 ---------------------------------------------------------------------------------------------------
                            Z-MATRIX (ANGSTROMS AND DEGREES)
   CD    Cent   Atom    N1       Length/X        N2       Alpha/Y        N3        Beta/Z          J
 ---------------------------------------------------------------------------------------------------
      1      1  C 
      2      2  O        1   2.160850(     1)
      3      3  H        1   1.075639(     2)      2   85.863(    12)
      4      4  H        2   0.969107(     3)      1  100.907(    13)      3  -86.729(    22)      0
      5      5  H        1   1.075160(     4)      2   83.138(    14)      4  153.145(    23)      0
      6      6  H        1   2.169202(     5)      2  100.629(    15)      4   59.300(    24)      0
      7      7  H        1   3.455042(     6)      2  110.184(    16)      4   11.206(    25)      0
      8      8  H        1   3.040277(     7)      2   79.177(    17)      4    9.111(    26)      0
      9      9  H        1   2.736958(     8)      2  100.883(    18)      4  -19.154(    27)      0
     10     10  C        1   2.574587(     9)      2   99.201(    19)      4    4.719(    28)      0
     11     11  C        1   1.450231(    10)      2  112.850(    20)     10   28.939(    29)      0
     12     12  O       11   1.401216(    11)      1   76.065(    21)      2  178.951(    30)      0
 ---------------------------------------------------------------------------------------------------
                         Z-Matrix orientation:                         
 ---------------------------------------------------------------------
 Center     Atomic      Atomic             Coordinates (Angstroms)
 Number     Number       Type             X           Y           Z
 ---------------------------------------------------------------------
      1          6           0        0.000000    0.000000    0.000000
      2          8           0        0.000000    0.000000    2.160850
      3          1           0        1.072836    0.000000    0.077602
      4          1           0        0.054289   -0.950049    2.344224
      5          1           0       -0.535747    0.923278    0.128457
      6          1           0       -1.768113   -1.191271   -0.400109
      7          1           0       -0.447676   -3.211817   -1.192113
      8          1           0       -0.303884   -2.970689    0.570915
      9          1           0        1.025280   -2.484490   -0.516767
     10          6           0       -0.064257   -2.540652   -0.411654
     11          6           0       -0.676029   -1.152826   -0.563160
     12          8           0       -0.273106   -0.416508   -1.685166
 ---------------------------------------------------------------------
                    Distance matrix (angstroms):
                    1          2          3          4          5
     1  C    0.000000
     2  O    2.160850   0.000000
     3  H    1.075639   2.343267   0.000000
     4  H    2.530006   0.969107   2.660378   0.000000
     5  H    1.075160   2.295667   1.855416   2.960933   0.000000
     6  H    2.169202   3.332246   3.117422   3.303135   2.503882
     7  H    3.455042   4.664606   3.773580   4.227676   4.341736
     8  H    3.040277   3.383081   3.311149   2.712176   3.925877
     9  H    2.736958   3.793880   2.555040   3.388599   3.803420
    10  C    2.574587   3.616188   2.826175   3.184170   3.537348
    11  C    1.450231   3.034181   2.190459   3.004558   2.192765
    12  O    1.757228   3.878132   2.256632   4.077725   2.270074
                    6          7          8          9         10
     6  H    0.000000
     7  H    2.540360   0.000000
     8  H    2.500636   1.785241   0.000000
     9  H    3.080433   1.776147   1.784970   0.000000
    10  C    2.173496   1.098449   1.098997   1.096036   0.000000
    11  C    1.104858   2.164988   2.174683   2.161004   1.524231
    12  O    2.118177   2.843823   3.408033   2.706938   2.485445
                   11         12
    11  C    0.000000
    12  O    1.401216   0.000000
 Symmetry turned off by external request.
 Stoichiometry    C3H7O2(1-)
 Framework group  C1[X(C3H7O2)]
 Deg. of freedom    30
 Full point group                 C1      NOp   1
 Rotational constants (GHZ):      7.1240369      3.2224805      2.4043707
 Standard basis: 6-31++G(d,p) (6D, 7F)
 The following finite field(s) will be applied:
 An electric field of              0.0000  0.0000  0.0025
 Integral buffers will be    131072 words long.
 Raffenetti 2 integral format.
 Two-electron integral symmetry is turned off.
   137 basis functions,   216 primitive gaussians,   137 cartesian basis functions
    21 alpha electrons       21 beta electrons
       nuclear repulsion energy       175.5480830977 Hartrees.
 NAtoms=   12 NActive=   12 NUniq=   12 SFac= 1.00D+00 NAtFMM=   50 NAOKFM=F Big=F
 One-electron integrals computed using PRISM.
 PrsmSu:  requested number of processors reduced to:  10 ShMem   1 Linda.
 NBasis=   137 RedAO= T  NBF=   137
 NBsUse=   137 1.00D-06 NBFU=   137
 The nuclear repulsion energy is now       175.5432113547 hartrees.
 Initial guess read from the read-write file.
 B after Tr=     0.000000    0.000000    0.000000
         Rot=    1.000000    0.000000    0.000000    0.000000 Ang=   0.00 deg.
 Harris functional with IExCor=  402 diagonalized for initial guess.
 ExpMin= 3.60D-02 ExpMax= 5.48D+03 ExpMxC= 8.25D+02 IAcc=3 IRadAn=         0 AccDes= 0.00D+00
 HarFok:  IExCor=  402 AccDes= 0.00D+00 IRadAn=         0 IDoV= 1
 ScaDFX=  1.000000  1.000000  1.000000  1.000000
 FoFCou: FMM=F IPFlag=           0 FMFlag=      100000 FMFlg1=           0
         NFxFlg=           0 DoJE=T BraDBF=F KetDBF=T FulRan=T
         Omega=  0.000000  0.000000  1.000000  0.000000  0.000000 ICntrl=     500 IOpCl=  0
         NMat0=    1 NMatS0=    1 NMatT0=    0 NMatD0=    1 NMtDS0=    0 NMtDT0=    0
         I1Cent=           4 NGrid=           0.
 Symmetry not used in FoFCou.
 Requested convergence on RMS density matrix=1.00D-08 within 128 cycles.
 Requested convergence on MAX density matrix=1.00D-06.
 Requested convergence on             energy=1.00D-06.
 No special actions if energy rises.
 SCF Done:  E(RB3LYP) =  -268.947160808     A.U. after   12 cycles
             Convg  =    0.6249D-08             -V/T =  2.0094
 Range of M.O.s used for correlation:     1   137
 NBasis=   137 NAE=    21 NBE=    21 NFC=     0 NFV=     0
 NROrb=    137 NOA=    21 NOB=    21 NVA=   116 NVB=   116

 **** Warning!!: The largest alpha MO coefficient is  0.28884027D+02

 PrsmSu:  requested number of processors reduced to:  10 ShMem   1 Linda.
 PrsmSu:  requested number of processors reduced to:  18 ShMem   1 Linda.
 Symmetrizing basis deriv contribution to polar:
 IMax=3 JMax=2 DiffMx= 0.00D+00
 G2DrvN: will do     4 centers at a time, making    4 passes doing MaxLOS=2.
 Estimated number of processors is:   15
 Calling FoFCou, ICntrl=  3107 FMM=F I1Cent=   0 AccDes= 0.00D+00.
 CoulSu:  requested number of processors reduced to:  15 ShMem   1 Linda.
 Calling FoFCou, ICntrl=  3107 FMM=F I1Cent=   0 AccDes= 0.00D+00.
 CoulSu:  requested number of processors reduced to:  15 ShMem   1 Linda.
 Calling FoFCou, ICntrl=  3107 FMM=F I1Cent=   0 AccDes= 0.00D+00.
 CoulSu:  requested number of processors reduced to:  15 ShMem   1 Linda.
 Calling FoFCou, ICntrl=  3107 FMM=F I1Cent=   0 AccDes= 0.00D+00.
 CoulSu:  requested number of processors reduced to:  15 ShMem   1 Linda.
 FoFDir/FoFCou used for L=0 through L=2.
 End of G2Drv Frequency-dependent properties file   721 does not exist.
 End of G2Drv Frequency-dependent properties file   722 does not exist.
          IDoAtm=111111111111
          Differentiating once with respect to electric field.
                with respect to dipole field.
          Differentiating once with respect to nuclear coordinates.
 PrRfSu:  requested number of processors reduced to:  15 ShMem   1 Linda.
 CalDSu:  requested number of processors reduced to:  19 ShMem   1 Linda.
          There are    39 degrees of freedom in the 1st order CPHF.  IDoFFX=5.
     36 vectors produced by pass  0 Test12= 6.25D-15 2.56D-09 XBig12= 1.17D+02 4.83D+00.
 AX will form    36 AO Fock derivatives at one time.
 PrRfSu:  requested number of processors reduced to:  15 ShMem   1 Linda.
 CalDSu:  requested number of processors reduced to:  20 ShMem   1 Linda.
     36 vectors produced by pass  1 Test12= 6.25D-15 2.56D-09 XBig12= 6.20D+01 2.03D+00.
 PrRfSu:  requested number of processors reduced to:  15 ShMem   1 Linda.
 CalDSu:  requested number of processors reduced to:  20 ShMem   1 Linda.
     36 vectors produced by pass  2 Test12= 6.25D-15 2.56D-09 XBig12= 4.63D-01 1.28D-01.
 PrRfSu:  requested number of processors reduced to:  15 ShMem   1 Linda.
 CalDSu:  requested number of processors reduced to:  20 ShMem   1 Linda.
     36 vectors produced by pass  3 Test12= 6.25D-15 2.56D-09 XBig12= 1.76D-03 5.18D-03.
 PrRfSu:  requested number of processors reduced to:  15 ShMem   1 Linda.
 CalDSu:  requested number of processors reduced to:  20 ShMem   1 Linda.
     36 vectors produced by pass  4 Test12= 6.25D-15 2.56D-09 XBig12= 4.27D-06 2.71D-04.
 PrRfSu:  requested number of processors reduced to:  15 ShMem   1 Linda.
 CalDSu:  requested number of processors reduced to:  20 ShMem   1 Linda.
     34 vectors produced by pass  5 Test12= 6.25D-15 2.56D-09 XBig12= 5.53D-09 8.09D-06.
 PrRfSu:  requested number of processors reduced to:  16 ShMem   1 Linda.
 CalDSu:  requested number of processors reduced to:  20 ShMem   1 Linda.
      4 vectors produced by pass  6 Test12= 6.25D-15 2.56D-09 XBig12= 4.30D-12 2.53D-07.
      3 vectors produced by pass  7 Test12= 6.25D-15 2.56D-09 XBig12= 4.06D-14 3.75D-08.
 Inverted reduced A of dimension   221 with in-core refinement.
 Isotropic polarizability for W=    0.000000       70.48 Bohr**3.
 End of Minotr Frequency-dependent properties file   721 does not exist.
 End of Minotr Frequency-dependent properties file   722 does not exist.
 PrsmSu:  requested number of processors reduced to:  10 ShMem   1 Linda.
 PrsmSu:  requested number of processors reduced to:  11 ShMem   1 Linda.
 Calling FoFJK, ICntrl=    100127 FMM=F ISym2X=0 I1Cent= 0 IOpClX= 0 NMat=1 NMatS=1 NMatT=0.
 CoulSu:  requested number of processors reduced to:  11 ShMem   1 Linda.
 -------------------------------------------------------------------
 Center     Atomic                   Forces (Hartrees/Bohr)
 Number     Number              X              Y              Z
 -------------------------------------------------------------------
      1        6           0.001283716    0.003176110    0.006011108
      2        8           0.000113654   -0.000491326    0.001372237
      3        1           0.001064164   -0.000416852    0.000203951
      4        1           0.000037635    0.000202819    0.000704478
      5        1          -0.000793741    0.000607829    0.000343377
      6        1           0.000285193    0.000366715   -0.000055907
      7        1          -0.000009616    0.000214822    0.000169143
      8        1           0.000033783   -0.000068541   -0.000045953
      9        1           0.000035785   -0.000059459    0.000052645
     10        6          -0.000025716    0.000580503   -0.000190292
     11        6          -0.000975414   -0.002272918   -0.001242836
     12        8          -0.001049442   -0.001839703   -0.004821951
 -------------------------------------------------------------------
 Cartesian Forces:  Max     0.006011108 RMS     0.001573150
 -----------------------------------------------------------------------------------------------
                       Internal Coordinate Forces (Hartree/Bohr or radian)
  Cent   Atom   N1       Length/X         N2         Alpha/Y        N3         Beta/Z          J
 -----------------------------------------------------------------------------------------------
      1  C 
      2  O        1   0.002077(     1)
      3  H        1   0.001076(     2)      2  -0.000257(    12)
      4  H        2  -0.000063(     3)      1   0.001336(    13)      3   0.001025(    22)     0
      5  H        1   0.000959(     4)      2  -0.000468(    14)      4  -0.000769(    23)     0
      6  H        1  -0.000424(     5)      2   0.000559(    15)      4   0.000583(    24)     0
      7  H        1  -0.000257(     6)      2  -0.000560(    16)      4   0.000240(    25)     0
      8  H        1   0.000055(     7)      2   0.000329(    17)      4  -0.000229(    26)     0
      9  H        1   0.000057(     8)      2  -0.000334(    18)      4  -0.000053(    27)     0
     10  C        1  -0.000542(     9)      2   0.001365(    19)      4  -0.000708(    28)     0
     11  C        1   0.006568(    10)      2  -0.001684(    20)     10  -0.000902(    29)     0
     12  O       11   0.002593(    11)      1   0.012136(    21)      2   0.000235(    30)     0
 -----------------------------------------------------------------------------------------------
 Internal  Forces:  Max     0.012136299 RMS     0.002678153

 GradGradGradGradGradGradGradGradGradGradGradGradGradGradGradGradGradGrad
 Berny optimization.
 Search for a saddle point.
 Step number   3 out of a maximum of  100
 All quantities printed in internal units (Hartrees-Bohrs-Radians)
 Swaping is turned off.
 Second derivative matrix not updated -- analytic derivatives used.
 ITU=  0  0  0
     Eigenvalues ---   -0.05783   0.00007   0.01126   0.01386   0.01674
     Eigenvalues ---    0.02993   0.03321   0.06496   0.07756   0.10477
     Eigenvalues ---    0.11439   0.16772   0.25274   0.26908   0.29436
     Eigenvalues ---    0.36855   0.38490   0.39006   0.42873   0.51240
     Eigenvalues ---    0.58637   0.91994   1.18570   2.67309   2.92950
     Eigenvalues ---    3.48966   5.30633   7.09829  17.49790  19.74250
 Eigenvectors required to have negative eigenvalues:
                          B1        A10       A1        A3        A9
   1                    0.70896  -0.48489  -0.32288  -0.31579  -0.15583
                          A2        B11       B10       D1        B7
   1                    0.08617   0.08163  -0.06663   0.06652   0.05680
 RFO step:  Lambda0=2.724249521D-04 Lambda=-6.53129677D-04.
 Linear search not attempted -- option 19 set.
 Variable       Old X    -DE/DX   Delta X   Delta X   Delta X     New X
                                 (Linear)    (Quad)   (Total)
    B1        4.08341   0.00208   0.00000   0.08627   0.08627   4.16968
    B2        2.03266   0.00108   0.00000   0.00240   0.00240   2.03506
    B3        1.83135  -0.00006   0.00000   0.00016   0.00016   1.83151
    B4        2.03176   0.00096   0.00000   0.00206   0.00206   2.03382
    B5        4.09920  -0.00042   0.00000   0.00022   0.00022   4.09941
    B6        6.52908  -0.00026   0.00000   0.00212   0.00212   6.53120
    B7        5.74529   0.00005   0.00000  -0.00612  -0.00612   5.73917
    B8        5.17210   0.00006   0.00000  -0.00071  -0.00071   5.17140
    B9        4.86527  -0.00054   0.00000  -0.00034  -0.00034   4.86493
   B10        2.74054   0.00657   0.00000   0.00794   0.00794   2.74848
   B11        2.64791   0.00259   0.00000   0.00150   0.00150   2.64941
    A1        1.49859  -0.00026   0.00000  -0.01417  -0.01417   1.48442
    A2        1.76116   0.00134   0.00000   0.02664   0.02664   1.78780
    A3        1.45103  -0.00047   0.00000  -0.01666  -0.01666   1.43437
    A4        1.75631   0.00056   0.00000   0.00527   0.00527   1.76158
    A5        1.92307  -0.00056   0.00000   0.00314   0.00314   1.92622
    A6        1.38189   0.00033   0.00000   0.00338   0.00338   1.38527
    A7        1.76075  -0.00033   0.00000   0.00342   0.00342   1.76417
    A8        1.73138   0.00136   0.00000   0.00401   0.00401   1.73539
    A9        1.96961  -0.00168   0.00000   0.00615   0.00615   1.97576
   A10        1.32759   0.01214   0.00000   0.00713   0.00713   1.33472
    D1       -1.51372   0.00102   0.00000   0.00366   0.00366  -1.51005
    D2        2.67289  -0.00077   0.00000  -0.00896  -0.00896   2.66393
    D3        1.03499   0.00058   0.00000  -0.00245  -0.00245   1.03253
    D4        0.19557   0.00024   0.00000  -0.00394  -0.00394   0.19164
    D5        0.15902  -0.00023   0.00000  -0.00384  -0.00384   0.15518
    D6       -0.33430  -0.00005   0.00000  -0.00422  -0.00422  -0.33852
    D7        0.08237  -0.00071   0.00000  -0.00385  -0.00385   0.07852
    D8        0.50508  -0.00090   0.00000   0.00020   0.00020   0.50528
    D9        3.12328   0.00024   0.00000   0.00017   0.00017   3.12346
         Item               Value     Threshold  Converged?
 Maximum Force            0.012136     0.000450     NO 
 RMS     Force            0.002678     0.000300     NO 
 Maximum Displacement     0.086265     0.001800     NO 
 RMS     Displacement     0.017393     0.001200     NO 
 Predicted change in Energy=-1.911461D-04
 GradGradGradGradGradGradGradGradGradGradGradGradGradGradGradGradGradGrad

 ---------------------------------------------------------------------------------------------------
                            Z-MATRIX (ANGSTROMS AND DEGREES)
   CD    Cent   Atom    N1       Length/X        N2       Alpha/Y        N3        Beta/Z          J
 ---------------------------------------------------------------------------------------------------
      1      1  C 
      2      2  O        1   2.206500(     1)
      3      3  H        1   1.076907(     2)      2   85.051(    12)
      4      4  H        2   0.969192(     3)      1  102.433(    13)      3  -86.520(    22)      0
      5      5  H        1   1.076251(     4)      2   82.183(    14)      4  152.632(    23)      0
      6      6  H        1   2.169317(     5)      2  100.931(    15)      4   59.160(    24)      0
      7      7  H        1   3.456163(     6)      2  110.364(    16)      4   10.980(    25)      0
      8      8  H        1   3.037039(     7)      2   79.370(    17)      4    8.891(    26)      0
      9      9  H        1   2.736585(     8)      2  101.079(    18)      4  -19.396(    27)      0
     10     10  C        1   2.574410(     9)      2   99.430(    19)      4    4.499(    28)      0
     11     11  C        1   1.454431(    10)      2  113.203(    20)     10   28.950(    29)      0
     12     12  O       11   1.402008(    11)      1   76.474(    21)      2  178.961(    30)      0
 ---------------------------------------------------------------------------------------------------
                         Z-Matrix orientation:                         
 ---------------------------------------------------------------------
 Center     Atomic      Atomic             Coordinates (Angstroms)
 Number     Number       Type             X           Y           Z
 ---------------------------------------------------------------------
      1          6           0        0.000000    0.000000    0.000000
      2          8           0        0.000000    0.000000    2.206500
      3          1           0        1.072892    0.000000    0.092909
      4          1           0        0.057459   -0.944716    2.415171
      5          1           0       -0.546739    0.915406    0.146372
      6          1           0       -1.759117   -1.200924   -0.411371
      7          1           0       -0.422894   -3.212438   -1.202690
      8          1           0       -0.281466   -2.971622    0.560218
      9          1           0        1.043991   -2.474353   -0.525885
     10          6           0       -0.045142   -2.539217   -0.421811
     11          6           0       -0.667770   -1.158058   -0.573024
     12          8           0       -0.270397   -0.419450   -1.696492
 ---------------------------------------------------------------------
                    Distance matrix (angstroms):
                    1          2          3          4          5
     1  C    0.000000
     2  O    2.206500   0.000000
     3  H    1.076907   2.370309   0.000000
     4  H    2.594000   0.969192   2.704902   0.000000
     5  H    1.076251   2.319702   1.861191   2.995422   0.000000
     6  H    2.169317   3.374901   3.117176   3.369707   2.501956
     7  H    3.456163   4.703315   3.773024   4.296769   4.344468
     8  H    3.037039   3.408813   3.298970   2.768406   3.917987
     9  H    2.736585   3.831223   2.550718   3.458735   3.804315
    10  C    2.574410   3.654816   2.821801   3.255983   3.536785
    11  C    1.454431   3.084277   2.194189   3.082333   2.198051
    12  O    1.768372   3.934768   2.276471   4.158024   2.292237
                    6          7          8          9         10
     6  H    0.000000
     7  H    2.541234   0.000000
     8  H    2.502561   1.784893   0.000000
     9  H    3.080933   1.776116   1.784302   0.000000
    10  C    2.174591   1.098042   1.098729   1.096016   0.000000
    11  C    1.104087   2.162620   2.173128   2.159857   1.522541
    12  O    2.116252   2.840401   3.406824   2.705654   2.483740
                   11         12
    11  C    0.000000
    12  O    1.402008   0.000000
 Symmetry turned off by external request.
 Stoichiometry    C3H7O2(1-)
 Framework group  C1[X(C3H7O2)]
 Deg. of freedom    30
 Full point group                 C1      NOp   1
 Rotational constants (GHZ):      7.1328460      3.1345314      2.3560875
 Standard basis: 6-31++G(d,p) (6D, 7F)
 The following finite field(s) will be applied:
 An electric field of              0.0000  0.0000  0.0025
 Integral buffers will be    131072 words long.
 Raffenetti 2 integral format.
 Two-electron integral symmetry is turned off.
   137 basis functions,   216 primitive gaussians,   137 cartesian basis functions
    21 alpha electrons       21 beta electrons
       nuclear repulsion energy       174.6175010746 Hartrees.
 NAtoms=   12 NActive=   12 NUniq=   12 SFac= 1.00D+00 NAtFMM=   50 NAOKFM=F Big=F
 One-electron integrals computed using PRISM.
 PrsmSu:  requested number of processors reduced to:  10 ShMem   1 Linda.
 NBasis=   137 RedAO= T  NBF=   137
 NBsUse=   137 1.00D-06 NBFU=   137
 The nuclear repulsion energy is now       174.6136544185 hartrees.
 Initial guess read from the read-write file.
 B after Tr=     0.000000    0.000000    0.000000
         Rot=    1.000000    0.000000    0.000000    0.000000 Ang=   0.00 deg.
 Harris functional with IExCor=  402 diagonalized for initial guess.
 ExpMin= 3.60D-02 ExpMax= 5.48D+03 ExpMxC= 8.25D+02 IAcc=3 IRadAn=         0 AccDes= 0.00D+00
 HarFok:  IExCor=  402 AccDes= 0.00D+00 IRadAn=         0 IDoV= 1
 ScaDFX=  1.000000  1.000000  1.000000  1.000000
 FoFCou: FMM=F IPFlag=           0 FMFlag=      100000 FMFlg1=           0
         NFxFlg=           0 DoJE=T BraDBF=F KetDBF=T FulRan=T
         Omega=  0.000000  0.000000  1.000000  0.000000  0.000000 ICntrl=     500 IOpCl=  0
         NMat0=    1 NMatS0=    1 NMatT0=    0 NMatD0=    1 NMtDS0=    0 NMtDT0=    0
         I1Cent=           4 NGrid=           0.
 Symmetry not used in FoFCou.
 Requested convergence on RMS density matrix=1.00D-08 within 128 cycles.
 Requested convergence on MAX density matrix=1.00D-06.
 Requested convergence on             energy=1.00D-06.
 No special actions if energy rises.
 SCF Done:  E(RB3LYP) =  -268.947359290     A.U. after   11 cycles
             Convg  =    0.4728D-08             -V/T =  2.0095
 Range of M.O.s used for correlation:     1   137
 NBasis=   137 NAE=    21 NBE=    21 NFC=     0 NFV=     0
 NROrb=    137 NOA=    21 NOB=    21 NVA=   116 NVB=   116

 **** Warning!!: The largest alpha MO coefficient is  0.28260085D+02

 PrsmSu:  requested number of processors reduced to:  10 ShMem   1 Linda.
 PrsmSu:  requested number of processors reduced to:  18 ShMem   1 Linda.
 Symmetrizing basis deriv contribution to polar:
 IMax=3 JMax=2 DiffMx= 0.00D+00
 G2DrvN: will do     4 centers at a time, making    4 passes doing MaxLOS=2.
 Estimated number of processors is:   15
 Calling FoFCou, ICntrl=  3107 FMM=F I1Cent=   0 AccDes= 0.00D+00.
 CoulSu:  requested number of processors reduced to:  15 ShMem   1 Linda.
 Calling FoFCou, ICntrl=  3107 FMM=F I1Cent=   0 AccDes= 0.00D+00.
 CoulSu:  requested number of processors reduced to:  15 ShMem   1 Linda.
 Calling FoFCou, ICntrl=  3107 FMM=F I1Cent=   0 AccDes= 0.00D+00.
 CoulSu:  requested number of processors reduced to:  15 ShMem   1 Linda.
 Calling FoFCou, ICntrl=  3107 FMM=F I1Cent=   0 AccDes= 0.00D+00.
 CoulSu:  requested number of processors reduced to:  15 ShMem   1 Linda.
 FoFDir/FoFCou used for L=0 through L=2.
 End of G2Drv Frequency-dependent properties file   721 does not exist.
 End of G2Drv Frequency-dependent properties file   722 does not exist.
          IDoAtm=111111111111
          Differentiating once with respect to electric field.
                with respect to dipole field.
          Differentiating once with respect to nuclear coordinates.
 PrRfSu:  requested number of processors reduced to:  15 ShMem   1 Linda.
 CalDSu:  requested number of processors reduced to:  19 ShMem   1 Linda.
          There are    39 degrees of freedom in the 1st order CPHF.  IDoFFX=5.
     36 vectors produced by pass  0 Test12= 6.25D-15 2.56D-09 XBig12= 1.20D+02 5.25D+00.
 AX will form    36 AO Fock derivatives at one time.
 PrRfSu:  requested number of processors reduced to:  15 ShMem   1 Linda.
 CalDSu:  requested number of processors reduced to:  20 ShMem   1 Linda.
     36 vectors produced by pass  1 Test12= 6.25D-15 2.56D-09 XBig12= 6.47D+01 2.02D+00.
 PrRfSu:  requested number of processors reduced to:  15 ShMem   1 Linda.
 CalDSu:  requested number of processors reduced to:  20 ShMem   1 Linda.
     36 vectors produced by pass  2 Test12= 6.25D-15 2.56D-09 XBig12= 4.60D-01 1.32D-01.
 PrRfSu:  requested number of processors reduced to:  15 ShMem   1 Linda.
 CalDSu:  requested number of processors reduced to:  20 ShMem   1 Linda.
     36 vectors produced by pass  3 Test12= 6.25D-15 2.56D-09 XBig12= 1.81D-03 5.55D-03.
 PrRfSu:  requested number of processors reduced to:  15 ShMem   1 Linda.
 CalDSu:  requested number of processors reduced to:  20 ShMem   1 Linda.
     36 vectors produced by pass  4 Test12= 6.25D-15 2.56D-09 XBig12= 4.59D-06 2.73D-04.
 PrRfSu:  requested number of processors reduced to:  15 ShMem   1 Linda.
 CalDSu:  requested number of processors reduced to:  20 ShMem   1 Linda.
     34 vectors produced by pass  5 Test12= 6.25D-15 2.56D-09 XBig12= 6.08D-09 9.08D-06.
 PrRfSu:  requested number of processors reduced to:  16 ShMem   1 Linda.
 CalDSu:  requested number of processors reduced to:  20 ShMem   1 Linda.
      4 vectors produced by pass  6 Test12= 6.25D-15 2.56D-09 XBig12= 4.71D-12 2.52D-07.
      3 vectors produced by pass  7 Test12= 6.25D-15 2.56D-09 XBig12= 4.51D-14 4.95D-08.
 Inverted reduced A of dimension   221 with in-core refinement.
 Isotropic polarizability for W=    0.000000       70.81 Bohr**3.
 End of Minotr Frequency-dependent properties file   721 does not exist.
 End of Minotr Frequency-dependent properties file   722 does not exist.
 PrsmSu:  requested number of processors reduced to:  10 ShMem   1 Linda.
 PrsmSu:  requested number of processors reduced to:  11 ShMem   1 Linda.
 Calling FoFJK, ICntrl=    100127 FMM=F ISym2X=0 I1Cent= 0 IOpClX= 0 NMat=1 NMatS=1 NMatT=0.
 CoulSu:  requested number of processors reduced to:  11 ShMem   1 Linda.
 -------------------------------------------------------------------
 Center     Atomic                   Forces (Hartrees/Bohr)
 Number     Number              X              Y              Z
 -------------------------------------------------------------------
      1        6          -0.000078126   -0.000081820    0.002631644
      2        8           0.000105879   -0.000015388    0.000108438
      3        1           0.000041354    0.000086167   -0.000022780
      4        1          -0.000004174    0.000035529    0.000068572
      5        1          -0.000034727    0.000029143   -0.000019776
      6        1          -0.000004010   -0.000000589   -0.000001366
      7        1          -0.000000287   -0.000003127   -0.000001122
      8        1          -0.000001639    0.000001521    0.000003313
[...]
      6        1          -0.000000690    0.000000313    0.000000093
      7        1          -0.000000042    0.000000036   -0.000000108
      8        1          -0.000000015    0.000000241   -0.000000171
      9        1           0.000000423   -0.000000085   -0.000000081
     10        6          -0.000000042   -0.000000267    0.000000265
     11        6           0.000000479   -0.000000438   -0.000000168
     12        8           0.000000163    0.000000024   -0.000000480
 -------------------------------------------------------------------
 Cartesian Forces:  Max     0.002499563 RMS     0.000417980
 -----------------------------------------------------------------------------------------------
                       Internal Coordinate Forces (Hartree/Bohr or radian)
  Cent   Atom   N1       Length/X         N2         Alpha/Y        N3         Beta/Z          J
 -----------------------------------------------------------------------------------------------
      1  C 
      2  O        1   0.000001(     1)
      3  H        1   0.000000(     2)      2   0.000000(    12)
      4  H        2   0.000000(     3)      1   0.000001(    13)      3  -0.000001(    22)     0
      5  H        1   0.000000(     4)      2   0.000000(    14)      4   0.000000(    23)     0
      6  H        1   0.000000(     5)      2  -0.000001(    15)      4   0.000003(    24)     0
      7  H        1   0.000000(     6)      2   0.000001(    16)      4   0.000000(    25)     0
      8  H        1   0.000000(     7)      2   0.000001(    17)      4   0.000000(    26)     0
      9  H        1   0.000000(     8)      2   0.000000(    18)      4  -0.000002(    27)     0
     10  C        1   0.000000(     9)      2  -0.000001(    19)      4  -0.000002(    28)     0
     11  C        1   0.000000(    10)      2   0.000001(    20)     10  -0.000002(    29)     0
     12  O       11   0.000000(    11)      1   0.000001(    21)      2   0.000000(    30)     0
 -----------------------------------------------------------------------------------------------
 Internal  Forces:  Max     0.000002608 RMS     0.000000908

 GradGradGradGradGradGradGradGradGradGradGradGradGradGradGradGradGradGrad
 Berny optimization.
 Search for a saddle point.
 Step number   1 out of a maximum of    2
 All quantities printed in internal units (Hartrees-Bohrs-Radians)
 Swaping is turned off.
 Second derivative matrix not updated -- analytic derivatives used.
 ITU=  0
     Eigenvalues ---   -0.05765   0.00006   0.01111   0.01360   0.01511
     Eigenvalues ---    0.02643   0.02914   0.06470   0.07718   0.09427
     Eigenvalues ---    0.11138   0.16635   0.24619   0.26409   0.29209
     Eigenvalues ---    0.36611   0.38287   0.38817   0.41273   0.51211
     Eigenvalues ---    0.57490   0.92417   1.18776   2.67862   2.93036
     Eigenvalues ---    3.49576   5.33234   7.08846  17.50935  19.76106
 Eigenvectors required to have negative eigenvalues:
                          B1        A10       A1        A3        A9
   1                    0.69398  -0.50259  -0.32137  -0.31193  -0.15340
                          A2        B11       D1        B10       D2
   1                    0.11406   0.08448   0.07278  -0.07093  -0.06180
 Angle between quadratic step and forces=  86.23 degrees.
 Linear search not attempted -- option 19 set.
 Variable       Old X    -DE/DX   Delta X   Delta X   Delta X     New X
                                 (Linear)    (Quad)   (Total)
    B1        4.17387   0.00000   0.00000   0.00001   0.00001   4.17389
    B2        2.03513   0.00000   0.00000   0.00000   0.00000   2.03512
    B3        1.83147   0.00000   0.00000   0.00000   0.00000   1.83147
    B4        2.03390   0.00000   0.00000   0.00000   0.00000   2.03390
    B5        4.09962   0.00000   0.00000   0.00002   0.00002   4.09965
    B6        6.53168   0.00000   0.00000   0.00000   0.00000   6.53167
    B7        5.73798   0.00000   0.00000   0.00004   0.00004   5.73801
    B8        5.17179   0.00000   0.00000  -0.00001  -0.00001   5.17177
    B9        4.86491   0.00000   0.00000   0.00001   0.00001   4.86491
   B10        2.74887   0.00000   0.00000   0.00001   0.00001   2.74888
   B11        2.64906   0.00000   0.00000  -0.00001  -0.00001   2.64904
    A1        1.48346   0.00000   0.00000  -0.00010  -0.00010   1.48336
    A2        1.79140   0.00000   0.00000  -0.00003  -0.00003   1.79137
    A3        1.43406   0.00000   0.00000   0.00007   0.00007   1.43413
    A4        1.76355   0.00000   0.00000   0.00008   0.00008   1.76363
    A5        1.92765   0.00000   0.00000   0.00002   0.00002   1.92768
    A6        1.38671   0.00000   0.00000   0.00002   0.00002   1.38673
    A7        1.76531   0.00000   0.00000  -0.00004  -0.00004   1.76527
    A8        1.73692   0.00000   0.00000   0.00001   0.00001   1.73693
    A9        1.97801   0.00000   0.00000   0.00006   0.00006   1.97806
   A10        1.33582   0.00000   0.00000   0.00003   0.00003   1.33585
    D1       -1.52241   0.00000   0.00000  -0.00204  -0.00204  -1.52446
    D2        2.65096   0.00000   0.00000  -0.00207  -0.00207   2.64889
    D3        1.01995   0.00000   0.00000  -0.00207  -0.00207   1.01787
    D4        0.17873   0.00000   0.00000  -0.00210  -0.00210   0.17663
    D5        0.14254   0.00000   0.00000  -0.00204  -0.00204   0.14050
    D6       -0.35148   0.00000   0.00000  -0.00208  -0.00208  -0.35356
    D7        0.06566   0.00000   0.00000  -0.00208  -0.00208   0.06358
    D8        0.50536   0.00000   0.00000  -0.00002  -0.00002   0.50534
    D9        3.12374   0.00000   0.00000   0.00008   0.00008   3.12382
         Item               Value     Threshold  Converged?
 Maximum Force            0.000003     0.000450     YES
 RMS     Force            0.000001     0.000300     YES
 Maximum Displacement     0.002102     0.001800     NO 
 RMS     Displacement     0.001001     0.001200     YES
 Predicted change in Energy=-8.955534D-10
 Optimization completed on the basis of negligible forces.
    -- Stationary point found.
                       ----------------------------
                       !   Optimized Parameters   !
                       ! (Angstroms and Degrees)  !
 ----------------------                            ----------------------
 !      Name          Value   Derivative information (Atomic Units)     !
 ------------------------------------------------------------------------
 !       B1          2.2087   -DE/DX =    0.0                           !
 !       B2          1.0769   -DE/DX =    0.0                           !
 !       B3          0.9692   -DE/DX =    0.0                           !
 !       B4          1.0763   -DE/DX =    0.0                           !
 !       B5          2.1694   -DE/DX =    0.0                           !
 !       B6          3.4564   -DE/DX =    0.0                           !
 !       B7          3.0364   -DE/DX =    0.0                           !
 !       B8          2.7368   -DE/DX =    0.0                           !
 !       B9          2.5744   -DE/DX =    0.0                           !
 !       B10         1.4546   -DE/DX =    0.0                           !
 !       B11         1.4018   -DE/DX =    0.0                           !
 !       A1         84.996    -DE/DX =    0.0                           !
 !       A2        102.6395   -DE/DX =    0.0                           !
 !       A3         82.1655   -DE/DX =    0.0                           !
 !       A4        101.0438   -DE/DX =    0.0                           !
 !       A5        110.4464   -DE/DX =    0.0                           !
 !       A6         79.4526   -DE/DX =    0.0                           !
 !       A7        101.1449   -DE/DX =    0.0                           !
 !       A8         99.5183   -DE/DX =    0.0                           !
 !       A9        113.3314   -DE/DX =    0.0                           !
 !       A10        76.5369   -DE/DX =    0.0                           !
 !       D1        -87.2279   -DE/DX =    0.0                           !
 !       D2        151.8888   -DE/DX =    0.0                           !
 !       D3         58.4387   -DE/DX =    0.0                           !
 !       D4         10.2406   -DE/DX =    0.0                           !
 !       D5          8.1671   -DE/DX =    0.0                           !
 !       D6        -20.1384   -DE/DX =    0.0                           !
 !       D7          3.762    -DE/DX =    0.0                           !
 !       D8         28.9549   -DE/DX =    0.0                           !
 !       D9        178.9772   -DE/DX =    0.0                           !
 ------------------------------------------------------------------------
 GradGradGradGradGradGradGradGradGradGradGradGradGradGradGradGradGradGrad

 1\1\GINC-C41N03\Freq\RB3LYP\6-31++G(d,p)\C3H7O2(1-)\ROOT\12-Mar-2018\1
 \\#N Geom=AllCheck Guess=TCheck SCRF=Check GenChk RB3LYP/6-31++G(d,p) 
 Freq\\OH-BACK-TERM\\-1,1\C\O,1,B1\H,1,B2,2,A1\H,2,B3,1,A2,3,D1,0\H,1,B
 4,2,A3,4,D2,0\H,1,B5,2,A4,4,D3,0\H,1,B6,2,A5,4,D4,0\H,1,B7,2,A6,4,D5,0
 \H,1,B8,2,A7,4,D6,0\C,1,B9,2,A8,4,D7,0\C,1,B10,2,A9,10,D8,0\O,11,B11,1
 ,A10,2,D9,0\\B1=2.20871948\B2=1.07694266\B3=0.96917178\B4=1.07629352\B
 5=2.16942731\B6=3.4564139\B7=3.03640599\B8=2.7367915\B9=2.57439868\B10
 =1.4546373\B11=1.40182056\A1=84.99596956\A2=102.63949225\A3=82.1655018
 7\A4=101.04381386\A5=110.446361\A6=79.45264135\A7=101.14489968\A8=99.5
 1831439\A9=113.33139662\A10=76.53694221\D1=-87.22789503\D2=151.8888493
 3\D3=58.43874619\D4=10.24059809\D5=8.16713447\D6=-20.13844001\D7=3.761
 97397\D8=28.95485501\D9=178.97721482\\Version=EM64L-G09RevB.01\HF=-268
 .9473603\RMSD=1.122e-09\RMSF=4.180e-04\ZeroPoint=0.0942296\Thermal=0.1
 01203\Dipole=-0.1405978,-1.628041,-1.4735822\DipoleDeriv=0.1374466,-0.
 0046725,0.0621425,-0.0405326,0.1006819,-0.0244704,0.2156935,0.4090292,
 2.4703617,-0.9207664,-0.0242891,-0.0193213,-0.0273704,-0.501757,-0.077
 1996,-0.0840407,-0.220683,-1.7353088,-0.0372918,-0.0130911,-0.0031937,
 0.0267192,0.0600887,0.0002986,-0.0020754,-0.0441691,-0.0699248,0.22360
 9,0.0113974,0.0007093,0.0268368,-0.2054579,0.0968079,-0.004813,0.00942
 06,0.1763142,0.0371383,0.0546822,-0.0005985,0.030121,-0.0462621,-0.005
 4954,-0.0287495,-0.0315316,-0.0389801,-0.3320788,-0.0551603,0.0462588,
 -0.016935,-0.0806379,0.0026656,0.080144,0.0415464,0.0291271,0.0216872,
 -0.0626292,-0.0825215,-0.0399461,-0.0950371,-0.085468,-0.0603791,-0.16
 7616,-0.0900453,0.032305,-0.025214,0.0615132,-0.0029236,-0.0382744,0.0
 440669,0.0430813,0.1649834,-0.1437705,-0.1760908,0.0443883,0.0157665,-
 0.0515011,0.0400987,0.0109551,0.0182483,-0.0028142,0.0441793,0.0708102
 ,0.1132638,-0.0277438,0.1161464,-0.1296568,0.0725737,-0.021404,0.04431
 97,0.2242896,0.4617871,0.0313428,0.1593722,0.0389546,0.6761124,0.20860
 15,-0.1315169,-0.3044398,0.1882541,-0.5185555,-0.0700181,-0.2123839,-0
 .0595691,-0.7798987,-0.2433359,-0.0241885,0.1019544,-2.0544963\Polar=5
 7.0990798,1.8933028,62.8467904,2.9704163,5.8428851,92.5489059\PG=C01 [
 X(C3H7O2)]\NImag=1\\0.68710322,-0.05222237,0.63288352,0.05776443,0.138
 30165,-0.00879070,-0.01378087,-0.00163386,0.00139704,0.00656184,-0.001
 02347,-0.02021646,0.00006786,-0.02366998,0.49890222,0.00087075,-0.0102
 0319,0.03367575,0.00362391,-0.10514290,0.04918474,-0.37076031,0.005630
 84,-0.03132931,0.00236464,-0.00033978,-0.00004238,0.37941920,0.0078228
 2,-0.05269492,-0.00986748,-0.00026037,0.00001886,0.00065840,-0.0028274
 1,0.04826964,-0.02080487,0.00058666,-0.01108987,0.00318513,0.00051104,
 -0.01137413,0.03136943,0.00741653,0.03698864,0.00005267,0.00137812,-0.
 00006282,-0.00091472,0.02328164,-0.00476551,-0.00017632,-0.00072229,0.
 00083125,0.00133083,0.00032465,-0.00033015,-0.00081190,0.02338966,-0.4
 8772839,0.10828564,0.00004457,-0.00029397,0.00007529,-0.02322001,0.487
 10777,0.00015960,0.00993411,0.00562325,-0.00464545,0.10083250,-0.03098
 088,0.00034602,0.00055759,-0.00123570,0.00492545,-0.10684660,0.0329654
 4,-0.14189450,0.14602488,0.01727567,0.00066643,-0.00105873,-0.00057540
 ,-0.00724786,0.02190432,0.00323387,-0.00015111,-0.00056994,0.00067278,
 0.13781639,0.14225009,-0.28042765,-0.04632468,-0.00036276,0.00053241,0
 .00190607,-0.00359676,0.00395831,0.00031382,-0.00035454,0.00056290,-0.
 00039210,-0.14697879,0.28725701,0.02037114,-0.03379821,-0.01594170,-0.
 00202281,0.00607119,-0.01037334,-0.00107362,0.00210769,0.00338619,-0.0
 0040976,-0.00061024,-0.00254594,-0.01824043,0.04501958,0.04160215,-0.0
 1236439,0.00143013,0.00584742,0.00158889,0.00018585,-0.00206209,0.0004
 1733,-0.00124717,0.00080136,-0.00054257,0.00009169,-0.00009115,0.00075
 982,-0.00009915,0.00008933,0.30296998,-0.02165102,-0.00055701,0.003543
 09,0.00052752,0.00010658,-0.00129602,-0.00106385,-0.00236543,0.0011628
 2,-0.00004586,0.00005433,-0.00019837,0.00021394,0.00089317,-0.00055335
 ,0.00569547,0.05993797,-0.02085105,0.00180795,-0.00124940,0.00063785,0
 .00014734,0.00089547,-0.00182879,-0.00306651,0.00060869,-0.00011682,-0
 .00002668,0.00009463,0.00120327,0.00050783,0.00017227,-0.03350110,-0.0
 0547911,0.05195117,-0.00115922,0.00149345,-0.00041423,0.00030401,-0.00
 007403,-0.00006521,0.00030336,0.00045065,-0.00006565,-0.00016966,-0.00
 006930,0.00002912,0.00050921,0.00046713,0.00007639,0.00063417,-0.00078
 312,0.00031999,0.08182884,0.00539748,-0.00394344,-0.00070035,-0.000031
 27,0.00001378,-0.00051952,0.00005156,0.00038518,0.00002107,-0.00001085
 ,0.00004816,-0.00001850,-0.00097172,-0.00136769,0.00050947,0.00048744,
 0.00122897,0.00046737,0.05881476,0.15155701,0.00059912,0.00153579,0.00
 046487,-0.00001712,-0.00029323,-0.00044510,0.00002916,0.00009860,-0.00
 015934,0.00002639,-0.00007175,0.00035641,-0.00004803,0.00017533,0.0002
 8887,0.00072827,-0.00037528,-0.00002269,0.07129217,0.12312254,0.190645
 79,0.00018844,-0.00029619,0.00070908,-0.00039305,0.00010227,-0.0000870
 8,0.00007916,0.00005536,0.00019595,0.00028917,0.00006263,-0.00025500,-
 0.00003525,-0.00001324,0.00003758,-0.00009307,-0.00080856,0.00025683,0
 .00181254,0.00566333,-0.01042251,0.05952069,-0.00072615,0.00102110,0.0
 0371203,0.00029840,0.00063391,-0.00099819,-0.00000710,-0.00015292,-0.0
 0016799,-0.00030674,0.00011271,-0.00094185,0.00010178,0.00013891,-0.00
 010132,0.00067363,0.00106770,-0.00084928,0.00551399,0.00846255,-0.0174
 6598,0.02330746,0.08867303,-0.00028340,0.00059465,-0.00252764,-0.00006
 964,-0.00038787,0.00099552,-0.00005743,0.00004906,0.00014065,0.0000295
 5,-0.00013207,0.00022242,0.00012945,0.00007696,0.00016672,-0.00078397,
 0.00027717,0.00033306,0.00537346,0.00929143,-0.01929014,-0.05549595,-0
 .09853540,0.27285501,0.00066319,-0.00127091,-0.00025727,0.00066272,0.0
 0003893,0.00021678,0.00054385,0.00079223,-0.00005356,-0.00029021,-0.00
 005327,-0.00001459,0.00022681,-0.00000919,0.00014633,0.00010761,0.0034
 9183,-0.00055203,-0.01008063,-0.00050514,0.00114562,-0.00474335,-0.000
 25734,0.00015369,0.33155253,0.00163202,0.00174734,-0.00053775,-0.00019
 187,0.00001353,0.00011547,-0.00072271,-0.00036142,-0.00007171,0.000025
 04,-0.00001395,-0.00002588,-0.00021958,0.00012455,-0.00009414,0.002790
 28,-0.00545038,0.00089653,-0.01913301,-0.00178353,0.00282494,-0.012269
 43,-0.00184729,0.00004304,0.01924264,0.05072559,0.00092062,-0.00008535
 ,0.00118500,-0.00054548,0.00006808,-0.00016727,0.00002612,-0.00019703,
 0.00008820,0.00037669,0.00011240,-0.00012886,-0.00013099,0.00002663,-0
 .00010738,-0.00016962,0.00040604,0.00083128,-0.02374625,-0.00113658,0.
 00242478,0.02869209,0.00128632,-0.00159308,-0.02704563,-0.00098869,0.0
 4782922,0.00672437,-0.01024605,0.00084734,-0.00028932,-0.00014258,-0.0
 0059562,0.00072592,-0.00114266,-0.00050684,0.00014451,-0.00002011,0.00
 037721,-0.00125550,-0.00225111,0.00026324,-0.01434665,0.03009435,-0.00
 229720,-0.07923541,-0.05500184,-0.06409562,-0.06029006,-0.02066725,0.0
 4973216,-0.30376885,-0.02114616,0.02458305,0.55209050,0.00881738,-0.02
 360863,0.00180366,-0.00008576,0.00005033,0.00016174,0.00094650,0.00168
 902,-0.00019365,0.00012468,0.00007280,0.00010820,-0.00100085,-0.000825
 63,0.00077683,-0.00040829,-0.00130400,-0.00104140,-0.05467711,-0.13787
 471,-0.11065812,-0.02125275,-0.08384337,0.08792219,-0.01874096,-0.0469
 3462,0.00129801,0.03841864,0.47480840,0.01257394,-0.01892472,-0.001305
 58,0.00033736,0.00071732,0.00037297,0.00011731,0.00115672,0.00017588,-
 0.00033251,-0.00021148,-0.00048321,-0.00216785,-0.00336184,0.00048750,
 0.00030838,-0.00269223,0.00349307,-0.06393048,-0.10998786,-0.17747687,
 0.04975500,0.08701722,-0.24991048,0.02397722,0.00206839,-0.04933393,-0
 .00763800,0.00843733,0.55341234,-0.13104878,-0.09514214,-0.07678086,-0
 .00136767,0.00251177,0.00859556,-0.01017112,-0.02686362,0.00065848,0.0
 0080612,0.00003508,-0.00088540,0.00993711,0.01437311,-0.00254192,-0.27
 597326,0.00103175,0.02184685,0.00528548,-0.01387032,0.00064352,0.00317
 115,-0.01116588,0.00227395,-0.01802754,0.03218892,-0.00217433,-0.10740
 308,0.04937961,-0.00345232,0.60210807,-0.09720544,-0.23464892,-0.13547
 316,0.00179624,0.00244632,0.01374042,0.00250301,0.00201760,-0.00232945
 ,0.00020985,-0.00015612,0.00069670,-0.01566648,-0.01489486,-0.00098933
 ,0.00339303,-0.04931630,-0.00418564,0.00978114,-0.02093537,0.00265802,
 0.00309094,-0.00559250,-0.00153243,-0.00190696,0.00080559,0.00019300,0
 .05020391,-0.16347129,-0.00407094,0.05826707,0.57470869,-0.04411194,-0
 .07556859,-0.00484300,0.00058562,0.00096082,-0.00548036,0.00125833,-0.
 00303527,-0.00654346,-0.00048436,0.00046539,-0.00249632,-0.00424342,-0
 .00061994,-0.00621719,0.01530264,-0.00438879,-0.04816816,0.01114805,-0
 .02411751,0.00114468,-0.01323700,0.02741703,-0.00355143,0.00316499,-0.
 00347036,-0.00079537,-0.00260771,-0.00337605,-0.07248641,-0.00817191,0
 .02052184,0.34566672,-0.02372382,0.00485409,0.02500352,0.00459710,0.00
 018811,-0.00511373,0.00450215,0.00203811,-0.01884454,-0.00037872,-0.00
 001565,-0.00061858,0.00066846,-0.00342478,0.00330453,-0.00315787,-0.01
 670245,0.03488220,-0.00003268,-0.00002343,0.00011903,0.00049364,0.0032
 3521,-0.00100186,0.00315388,-0.00219613,-0.00078627,0.00690357,-0.0015
 2108,-0.00954804,-0.07731648,-0.01446632,0.04139671,0.08429077,0.00658
 400,-0.01922477,0.04628702,0.00022405,0.00522692,-0.00670791,-0.000618
 87,-0.00046994,-0.00732442,-0.00035905,0.00056392,-0.00370582,-0.00177
 884,0.00404858,-0.01833818,-0.01299291,-0.00429560,0.01082159,-0.00178
 456,0.00420908,-0.00155087,0.00235818,-0.00867383,0.00233328,-0.000821
 85,0.00297458,-0.00098283,-0.00809914,-0.01875829,0.03985209,-0.010745
 34,-0.09096284,0.06521143,0.02803433,0.12536221,-0.00720834,-0.0141807
 6,0.00479901,-0.00246641,-0.00355215,-0.02630337,0.00118517,0.00412172
 ,-0.01098575,-0.00001755,-0.00022801,-0.00139125,0.00289108,0.00267235
 ,-0.01091815,0.01353052,0.00959401,-0.00893938,-0.00001736,0.00306843,
 0.00206875,-0.00014898,-0.00037261,0.00215938,-0.00088153,-0.00075984,
 -0.00023260,0.00193799,0.01476127,-0.00694528,0.05998839,0.11077098,-0
 .19622971,-0.06879296,-0.12589538,0.25291834\\0.00008457,0.00012988,-0
 .00249956,-0.00008433,-0.00003260,-0.00000067,-0.00000033,-0.00009721,
 -0.00000004,0.00000047,-0.00000014,-0.00000050,-0.00000011,-0.00000012
 ,0.00000013,0.00000069,-0.00000031,-0.00000009,0.00000004,-0.00000004,
 0.00000011,0.00000002,-0.00000024,0.00000017,-0.00000042,0.00000008,0.
 00000008,0.00000004,0.00000027,-0.00000026,-0.00000048,0.00000044,0.00
 000017,-0.00000016,-0.00000002,0.00000048\\\@


 PENOTUS DIED A HUNDRED YEARS OLD WANTING BUT TWO...
 AND HE USED TO SAY BEFORE HE DIED, HAVING SPENT HIS
 WHOLE LIFE IN VAINLY SEARCHING AFTER THE PHILOSOPHER'S
 STONE, THAT IF HE HAD A MORTAL ENEMY HE DID NOT DARE
 TO ENCOUNTER OPENLY, HE WOULD ADVISE HIM ABOVE ALL
 THINGS TO GIVE HIMSELF UP TO THE STUDY AND PRACTICE
 OF ALCHEMY.  --  NICOLAS LEMERY, M.D.
 "A COURSE OF CHYMISTRY", WALTER KETTILBY, LONDON, 1686
 Job cpu time:  0 days  0 hours  7 minutes 29.6 seconds.
 File lengths (MBytes):  RWF=   1280 Int=      0 D2E=      0 Chk=     32 Scr=     32
 Normal termination of Gaussian 09 at Mon Mar 12 15:36:30 2018.
