 Entering Gaussian System, Link 0=g09
 Input=H2O-mid-z-10.gjf
 Output=H2O-mid-z-10.log
 Initial command:
 /share/home/zxchen/g09/l1.exe /scratch/zxchen/Gau-17223.inp -scrdir=/scratch/zxchen/
 Entering Link 1 = /share/home/zxchen/g09/l1.exe PID=     17224.
  
 Copyright (c) 1988,1990,1992,1993,1995,1998,2003,2009,2010,
            Gaussian, Inc.  All Rights Reserved.
  
 This is part of the Gaussian(R) 09 program.  It is based on
 the Gaussian(R) 03 system (copyright 2003, Gaussian, Inc.),
 the Gaussian(R) 98 system (copyright 1998, Gaussian, Inc.),
 the Gaussian(R) 94 system (copyright 1995, Gaussian, Inc.),
 the Gaussian 92(TM) system (copyright 1992, Gaussian, Inc.),
 the Gaussian 90(TM) system (copyright 1990, Gaussian, Inc.),
 the Gaussian 88(TM) system (copyright 1988, Gaussian, Inc.),
 the Gaussian 86(TM) system (copyright 1986, Carnegie Mellon
 University), and the Gaussian 82(TM) system (copyright 1983,
 Carnegie Mellon University). Gaussian is a federally registered
 trademark of Gaussian, Inc.
  
 This software contains proprietary and confidential information,
 including trade secrets, belonging to Gaussian, Inc.
  
 This software is provided under written license and may be
 used, copied, transmitted, or stored only in accord with that
 written license.
  
 The following legend is applicable only to US Government
 contracts under FAR:
  
                    RESTRICTED RIGHTS LEGEND
  
 Use, reproduction and disclosure by the US Government is
 subject to restrictions as set forth in subparagraphs (a)
 and (c) of the Commercial Computer Software - Restricted
 Rights clause in FAR 52.227-19.
  
 Gaussian, Inc.
 340 Quinnipiac St., Bldg. 40, Wallingford CT 06492
  
  
 ---------------------------------------------------------------
 Warning -- This program may not be used in any manner that
 competes with the business of Gaussian, Inc. or will provide
 assistance to any competitor of Gaussian, Inc.  The licensee
 of this program is prohibited from giving any competitor of
 Gaussian, Inc. access to this program.  By using this program,
 the user acknowledges that Gaussian, Inc. is engaged in the
 business of creating and licensing software in the field of
 computational chemistry and represents and warrants to the
 licensee that it is not a competitor of Gaussian, Inc. and that
 it will not use this program in any manner prohibited above.
 ---------------------------------------------------------------
  

 Cite this work as:
 Gaussian 09, Revision B.01,
 M. J. Frisch, G. W. Trucks, H. B. Schlegel, G. E. Scuseria, 
 M. A. Robb, J. R. Cheeseman, G. Scalmani, V. Barone, B. Mennucci, 
 G. A. Petersson, H. Nakatsuji, M. Caricato, X. Li, H. P. Hratchian, 
 A. F. Izmaylov, J. Bloino, G. Zheng, J. L. Sonnenberg, M. Hada, 
 M. Ehara, K. Toyota, R. Fukuda, J. Hasegawa, M. Ishida, T. Nakajima, 
 Y. Honda, O. Kitao, H. Nakai, T. Vreven, J. A. Montgomery, Jr., 
 J. E. Peralta, F. Ogliaro, M. Bearpark, J. J. Heyd, E. Brothers, 
 K. N. Kudin, V. N. Staroverov, T. Keith, R. Kobayashi, J. Normand, 
 K. Raghavachari, A. Rendell, J. C. Burant, S. S. Iyengar, J. Tomasi, 
 M. Cossi, N. Rega, J. M. Millam, M. Klene, J. E. Knox, J. B. Cross, 
 V. Bakken, C. Adamo, J. Jaramillo, R. Gomperts, R. E. Stratmann, 
 O. Yazyev, A. J. Austin, R. Cammi, C. Pomelli, J. W. Ochterski, 
 R. L. Martin, K. Morokuma, V. G. Zakrzewski, G. A. Voth, 
 P. Salvador, J. J. Dannenberg, S. Dapprich, A. D. Daniels, 
 O. Farkas, J. B. Foresman, J. V. Ortiz, J. Cioslowski, 
 and D. J. Fox, Gaussian, Inc., Wallingford CT, 2010.
 
 ******************************************
 Gaussian 09:  EM64L-G09RevB.01 12-Aug-2010
                27-Feb-2018 
 ******************************************
 %chk=H2O-mid-field.chk
 %nprocshared=24
 Will use up to   24 processors via shared memory.
 ----------------------------------------------------------------------
 # field=z-10 freq opt=(ts,noeigen,calcall,z-matrix) nosymm rb3lyp/6-31
 ++g(d,p)
 ----------------------------------------------------------------------
 1/5=1,10=4,11=1,14=-1,18=40,26=3,38=1/1,3;
 2/12=2,15=1,17=6,18=5,29=3,40=1/2;
 3/5=1,6=6,7=1111,11=2,14=3,15=-10,16=1,25=1,30=1,71=2,74=-5,116=1/1,2,3;
 4//1;
 5/5=2,38=5/2;
 8/6=4,10=90,11=11/1;
 11/6=1,8=1,9=11,15=111,16=1,31=1/1,2,10;
 10/6=1,31=1/2;
 6/7=2,8=2,9=2,10=2,18=1,28=1/1;
 7/10=1,25=1,30=1/1,2,3,16;
 1/5=1,10=4,11=1,14=-1,18=40/3(3);
 2/15=1,29=3/2;
 7/8=1,9=1,25=1,30=1,44=-1/16;
 99//99;
 2/15=1,29=3/2;
 3/5=1,6=6,7=1111,11=2,14=3,15=-10,16=1,25=1,30=1,71=2,74=-5,116=1/1,2,3;
 4/5=5,16=3/1;
 5/5=2,38=5/2;
 8/6=4,10=90,11=11/1;
 11/6=1,8=1,9=11,15=111,16=1,31=1/1,2,10;
 10/6=1,31=1/2;
 7/10=1,25=1,30=1/1,2,3,16;
 1/5=1,10=4,11=1,14=-1,18=40/3(-8);
 2/15=1,29=3/2;
 6/7=2,8=2,9=2,10=2,18=1,19=2,28=1/1;
 7/8=1,9=1,25=1,30=1,44=-1/16;
 99//99;
 -----------
 OH-BACK-MID
 -----------
 Symbolic Z-matrix:
 Charge =  0 Multiplicity = 1
 C
 O                    1     2.28585 
 H                    1    B1       2    A1
 H                    1    B2       2    A2       3    D1       0
 H                    1    B3       2    A3       4    D2       0
 H                    1    B4       2    A4       5    D3       0
 H                    1    B5       2    A5       5    D4       0
 H                    2    B6       1    A6       5    D5       0
 H                    1    B7       2    A7       8    D6       0
 H                    2    B8       1    A8       5    D7       0
 C                    1    B9       2    A9       10   D8       0
 C                    1    B10      11   A10      2    D9       0
 O                    11   B11      1    A11      12   D10      0
       Variables:
  B1                    2.11148                  
  B2                    2.13438                  
  B3                    1.07                     
  B4                    2.05819                  
  B5                    2.12328                  
  B6                    1.04792                  
  B7                    2.11083                  
  B8                    0.96                     
  B9                    1.48493                  
  B10                   1.47551                  
  B11                   1.43                     
  A1                  123.20122                  
  A2                   94.26057                  
  A3                   78.55339                  
  A4                  120.93438                  
  A5                  101.7495                   
  A6                   70.43868                  
  A7                   73.28177                  
  A8                  120.41597                  
  A9                   97.80224                  
  A10                 121.26136                  
  A11                  98.08895                  
  D1                   41.18783                  
  D2                   93.46492                  
  D3                   93.92322                  
  D4                  143.65601                  
  D5                  145.28555                  
  D6                 -111.286                    
  D7                   45.35218                  
  D8                  -75.67965                  
  D9                  105.38324                  
  D10                  68.63585                  
 

 GradGradGradGradGradGradGradGradGradGradGradGradGradGradGradGradGradGrad
 Berny optimization.
 Initialization pass.
                       ----------------------------
                       !    Initial Parameters    !
                       ! (Angstroms and Degrees)  !
 ----------------------                            ----------------------
 !      Name          Value   Derivative information (Atomic Units)     !
 ------------------------------------------------------------------------
 !       B1          2.1115   calculate D2E/DX2 analytically            !
 !       B2          2.1344   calculate D2E/DX2 analytically            !
 !       B3          1.07     calculate D2E/DX2 analytically            !
 !       B4          2.0582   calculate D2E/DX2 analytically            !
 !       B5          2.1233   calculate D2E/DX2 analytically            !
 !       B6          1.0479   calculate D2E/DX2 analytically            !
 !       B7          2.1108   calculate D2E/DX2 analytically            !
 !       B8          0.96     calculate D2E/DX2 analytically            !
 !       B9          1.4849   calculate D2E/DX2 analytically            !
 !       B10         1.4755   calculate D2E/DX2 analytically            !
 !       B11         1.43     calculate D2E/DX2 analytically            !
 !       A1        123.2012   calculate D2E/DX2 analytically            !
 !       A2         94.2606   calculate D2E/DX2 analytically            !
 !       A3         78.5534   calculate D2E/DX2 analytically            !
 !       A4        120.9344   calculate D2E/DX2 analytically            !
 !       A5        101.7495   calculate D2E/DX2 analytically            !
 !       A6         70.4387   calculate D2E/DX2 analytically            !
 !       A7         73.2818   calculate D2E/DX2 analytically            !
 !       A8        120.416    calculate D2E/DX2 analytically            !
 !       A9         97.8022   calculate D2E/DX2 analytically            !
 !       A10       121.2614   calculate D2E/DX2 analytically            !
 !       A11        98.089    calculate D2E/DX2 analytically            !
 !       D1         41.1878   calculate D2E/DX2 analytically            !
 !       D2         93.4649   calculate D2E/DX2 analytically            !
 !       D3         93.9232   calculate D2E/DX2 analytically            !
 !       D4        143.656    calculate D2E/DX2 analytically            !
 !       D5        145.2855   calculate D2E/DX2 analytically            !
 !       D6       -111.286    calculate D2E/DX2 analytically            !
 !       D7         45.3522   calculate D2E/DX2 analytically            !
 !       D8        -75.6797   calculate D2E/DX2 analytically            !
 !       D9        105.3832   calculate D2E/DX2 analytically            !
 !       D10        68.6358   calculate D2E/DX2 analytically            !
 ------------------------------------------------------------------------
 Trust Radius=3.00D-01 FncErr=1.00D-07 GrdErr=1.00D-06
 Number of steps in this run=     42 maximum allowed number of steps=    100.
 Search for a saddle point of order  1.
 GradGradGradGradGradGradGradGradGradGradGradGradGradGradGradGradGradGrad

 ---------------------------------------------------------------------------------------------------
                            Z-MATRIX (ANGSTROMS AND DEGREES)
   CD    Cent   Atom    N1       Length/X        N2       Alpha/Y        N3        Beta/Z          J
 ---------------------------------------------------------------------------------------------------
      1      1  C 
      2      2  O        1   2.285847(     1)
      3      3  H        1   2.111485(     2)      2  123.201(    13)
      4      4  H        1   2.134380(     3)      2   94.261(    14)      3   41.188(    24)      0
      5      5  H        1   1.070000(     4)      2   78.553(    15)      4   93.465(    25)      0
      6      6  H        1   2.058188(     5)      2  120.934(    16)      5   93.923(    26)      0
      7      7  H        1   2.123275(     6)      2  101.750(    17)      5  143.656(    27)      0
      8      8  H        2   1.047923(     7)      1   70.439(    18)      5  145.286(    28)      0
      9      9  H        1   2.110834(     8)      2   73.282(    19)      8 -111.286(    29)      0
     10     10  H        2   0.960000(     9)      1  120.416(    20)      5   45.352(    30)      0
     11     11  C        1   1.484928(    10)      2   97.802(    21)     10  -75.680(    31)      0
     12     12  C        1   1.475515(    11)     11  121.261(    22)      2  105.383(    32)      0
     13     13  O       11   1.430000(    12)      1   98.089(    23)     12   68.636(    33)      0
 ---------------------------------------------------------------------------------------------------
                         Z-Matrix orientation:                         
 ---------------------------------------------------------------------
 Center     Atomic      Atomic             Coordinates (Angstroms)
 Number     Number       Type             X           Y           Z
 ---------------------------------------------------------------------
      1          6           0        0.000000    0.000000    0.000000
      2          8           0        0.000000    0.000000    2.285847
      3          1           0        1.766791    0.000000   -1.156209
      4          1           0        1.601799   -1.401668   -0.158568
      5          1           0       -0.737048   -0.746036    0.212347
      6          1           0       -1.168051    1.323775   -1.058024
      7          1           0        0.300400    2.056967   -0.432370
      8          1           0        0.970487    0.182197    1.934986
      9          1           0       -1.068860    1.715940    0.607214
     10          1           0        0.010106   -0.827816    2.771870
     11          6           0        1.429804   -0.346459   -0.201585
     12          6           0       -0.495040    1.371242   -0.227540
     13          8           0        1.972698    0.393544    0.895029
 ---------------------------------------------------------------------
                    Distance matrix (angstroms):
                    1          2          3          4          5
     1  C    0.000000
     2  O    2.285847   0.000000
     3  H    2.111485   3.869018   0.000000
     4  H    2.134380   3.241234   1.728347   0.000000
     5  H    1.070000   2.323620   2.949359   2.457160   0.000000
     6  H    2.058188   3.781295   3.221074   3.988625   2.466520
     7  H    2.123275   3.421996   2.627805   3.705505   3.057578
     8  H    2.172374   1.047923   3.197308   2.700028   2.597070
     9  H    2.110834   2.627684   3.754334   4.175922   2.515422
    10  H    2.892861   0.960000   4.381897   3.383824   2.667599
    11  C    1.484928   2.889929   1.070000   1.070000   2.241929
    12  C    1.475515   2.905595   2.803321   3.477143   2.175991
    13  O    2.201702   2.445566   2.098774   2.114337   3.017850
                    6          7          8          9         10
     6  H    0.000000
     7  H    1.756521   0.000000
     8  H    3.851578   3.093243   0.000000
     9  H    1.713665   1.752685   2.876505   0.000000
    10  H    4.548130   4.321273   1.625679   3.510071   0.000000
    11  C    3.204999   2.665571   2.248418   3.339306   3.329968
    12  C    1.070000   1.070000   2.870212   1.070000   3.753331
    13  O    3.813667   2.706574   1.459660   3.329061   2.977587
                   11         12         13
    11  C    0.000000
    12  C    2.579960   0.000000
    13  O    1.430000   2.881977   0.000000
 Symmetry turned off by external request.
 Stoichiometry    C3H8O2
 Framework group  C1[X(C3H8O2)]
 Deg. of freedom    33
 Full point group                 C1      NOp   1
 Rotational constants (GHZ):      4.9557473      4.6524424      3.0631878
 Standard basis: 6-31++G(d,p) (6D, 7F)
 The following finite field(s) will be applied:
 An electric field of              0.0000  0.0000 -0.0010
 Integral buffers will be    131072 words long.
 Raffenetti 2 integral format.
 Two-electron integral symmetry is turned off.
   143 basis functions,   224 primitive gaussians,   143 cartesian basis functions
    21 alpha electrons       21 beta electrons
       nuclear repulsion energy       189.6946520502 Hartrees.
 NAtoms=   13 NActive=   13 NUniq=   13 SFac= 1.00D+00 NAtFMM=   50 NAOKFM=F Big=F
 One-electron integrals computed using PRISM.
 PrsmSu:  requested number of processors reduced to:  10 ShMem   1 Linda.
 NBasis=   143 RedAO= T  NBF=   143
 NBsUse=   143 1.00D-06 NBFU=   143
 The nuclear repulsion energy is now       189.6462873567 hartrees.
 Harris functional with IExCor=  402 diagonalized for initial guess.
 ExpMin= 3.60D-02 ExpMax= 5.48D+03 ExpMxC= 8.25D+02 IAcc=3 IRadAn=         0 AccDes= 0.00D+00
 HarFok:  IExCor=  402 AccDes= 0.00D+00 IRadAn=         0 IDoV= 1
 ScaDFX=  1.000000  1.000000  1.000000  1.000000
 FoFCou: FMM=F IPFlag=           0 FMFlag=      100000 FMFlg1=           0
         NFxFlg=           0 DoJE=T BraDBF=F KetDBF=T FulRan=T
         Omega=  0.000000  0.000000  1.000000  0.000000  0.000000 ICntrl=     500 IOpCl=  0
         NMat0=    1 NMatS0=    1 NMatT0=    0 NMatD0=    1 NMtDS0=    0 NMtDT0=    0
         I1Cent=           4 NGrid=           0.
 Symmetry not used in FoFCou.
 Requested convergence on RMS density matrix=1.00D-08 within 128 cycles.
 Requested convergence on MAX density matrix=1.00D-06.
 Requested convergence on             energy=1.00D-06.
 No special actions if energy rises.
 EnCoef did     3 forward-backward iterations
 EnCoef did     2 forward-backward iterations
 SCF Done:  E(RB3LYP) =  -269.488886777     A.U. after   16 cycles
             Convg  =    0.4105D-08             -V/T =  2.0088
 Range of M.O.s used for correlation:     1   143
 NBasis=   143 NAE=    21 NBE=    21 NFC=     0 NFV=     0
 NROrb=    143 NOA=    21 NOB=    21 NVA=   122 NVB=   122

 **** Warning!!: The largest alpha MO coefficient is  0.44719409D+02

 PrsmSu:  requested number of processors reduced to:  10 ShMem   1 Linda.
 PrsmSu:  requested number of processors reduced to:  17 ShMem   1 Linda.
 Symmetrizing basis deriv contribution to polar:
 IMax=3 JMax=2 DiffMx= 0.00D+00
 G2DrvN: will do     3 centers at a time, making    5 passes doing MaxLOS=2.
 Estimated number of processors is:   15
 Calling FoFCou, ICntrl=  3107 FMM=F I1Cent=   0 AccDes= 0.00D+00.
 CoulSu:  requested number of processors reduced to:  15 ShMem   1 Linda.
 Calling FoFCou, ICntrl=  3107 FMM=F I1Cent=   0 AccDes= 0.00D+00.
 CoulSu:  requested number of processors reduced to:  15 ShMem   1 Linda.
 Calling FoFCou, ICntrl=  3107 FMM=F I1Cent=   0 AccDes= 0.00D+00.
 CoulSu:  requested number of processors reduced to:  15 ShMem   1 Linda.
 Calling FoFCou, ICntrl=  3107 FMM=F I1Cent=   0 AccDes= 0.00D+00.
 CoulSu:  requested number of processors reduced to:  15 ShMem   1 Linda.
 Calling FoFCou, ICntrl=  3107 FMM=F I1Cent=   0 AccDes= 0.00D+00.
 CoulSu:  requested number of processors reduced to:  15 ShMem   1 Linda.
 FoFDir/FoFCou used for L=0 through L=2.
 End of G2Drv Frequency-dependent properties file   721 does not exist.
 End of G2Drv Frequency-dependent properties file   722 does not exist.
          IDoAtm=1111111111111
          Differentiating once with respect to electric field.
                with respect to dipole field.
          Differentiating once with respect to nuclear coordinates.
 PrRfSu:  requested number of processors reduced to:  16 ShMem   1 Linda.
 CalDSu:  requested number of processors reduced to:  22 ShMem   1 Linda.
 PrRfSu:  requested number of processors reduced to:  16 ShMem   1 Linda.
 CalDSu:  requested number of processors reduced to:  22 ShMem   1 Linda.
          There are    42 degrees of freedom in the 1st order CPHF.  IDoFFX=5.
     42 vectors produced by pass  0 Test12= 6.10D-15 2.38D-09 XBig12= 1.11D+02 8.53D+00.
 AX will form    21 AO Fock derivatives at one time.
 PrRfSu:  requested number of processors reduced to:  16 ShMem   1 Linda.
 CalDSu:  requested number of processors reduced to:  22 ShMem   1 Linda.
 PrRfSu:  requested number of processors reduced to:  16 ShMem   1 Linda.
 CalDSu:  requested number of processors reduced to:  22 ShMem   1 Linda.
     39 vectors produced by pass  1 Test12= 6.10D-15 2.38D-09 XBig12= 4.12D+01 1.37D+00.
 PrRfSu:  requested number of processors reduced to:  15 ShMem   1 Linda.
 CalDSu:  requested number of processors reduced to:  19 ShMem   1 Linda.
     39 vectors produced by pass  2 Test12= 6.10D-15 2.38D-09 XBig12= 4.85D-01 1.15D-01.
 PrRfSu:  requested number of processors reduced to:  15 ShMem   1 Linda.
 CalDSu:  requested number of processors reduced to:  19 ShMem   1 Linda.
     39 vectors produced by pass  3 Test12= 6.10D-15 2.38D-09 XBig12= 1.54D-03 6.14D-03.
 PrRfSu:  requested number of processors reduced to:  15 ShMem   1 Linda.
 CalDSu:  requested number of processors reduced to:  19 ShMem   1 Linda.
     39 vectors produced by pass  4 Test12= 6.10D-15 2.38D-09 XBig12= 2.24D-06 2.01D-04.
 PrRfSu:  requested number of processors reduced to:  15 ShMem   1 Linda.
 CalDSu:  requested number of processors reduced to:  19 ShMem   1 Linda.
     26 vectors produced by pass  5 Test12= 6.10D-15 2.38D-09 XBig12= 1.86D-09 8.14D-06.
 PrRfSu:  requested number of processors reduced to:  16 ShMem   1 Linda.
 CalDSu:  requested number of processors reduced to:  21 ShMem   1 Linda.
      3 vectors produced by pass  6 Test12= 6.10D-15 2.38D-09 XBig12= 1.45D-12 1.79D-07.
      3 vectors produced by pass  7 Test12= 6.10D-15 2.38D-09 XBig12= 1.11D-14 2.38D-08.
 Inverted reduced A of dimension   230 with in-core refinement.
 Isotropic polarizability for W=    0.000000       56.87 Bohr**3.
 End of Minotr Frequency-dependent properties file   721 does not exist.
 End of Minotr Frequency-dependent properties file   722 does not exist.

 **********************************************************************

            Population analysis using the SCF density.

 **********************************************************************

 Alpha  occ. eigenvalues --  -19.14747 -19.10024 -10.29763 -10.23716 -10.20842
 Alpha  occ. eigenvalues --   -0.99877  -0.94171  -0.81189  -0.70092  -0.60643
 Alpha  occ. eigenvalues --   -0.52113  -0.50842  -0.46258  -0.45213  -0.41396
 Alpha  occ. eigenvalues --   -0.40642  -0.38890  -0.35671  -0.31204  -0.23673
 Alpha  occ. eigenvalues --   -0.23370
 Alpha virt. eigenvalues --   -0.11213  -0.01768   0.00047   0.00970   0.01875
 Alpha virt. eigenvalues --    0.03809   0.04316   0.05406   0.06346   0.07312
 Alpha virt. eigenvalues --    0.08686   0.09879   0.11416   0.11847   0.12082
 Alpha virt. eigenvalues --    0.12412   0.13600   0.14519   0.14905   0.15541
 Alpha virt. eigenvalues --    0.17761   0.19086   0.20601   0.20957   0.21751
 Alpha virt. eigenvalues --    0.23553   0.24307   0.25189   0.27402   0.28684
 Alpha virt. eigenvalues --    0.29346   0.30849   0.32179   0.32867   0.34321
 Alpha virt. eigenvalues --    0.35791   0.37453   0.39062   0.40590   0.44072
 Alpha virt. eigenvalues --    0.61569   0.66305   0.68641   0.71771   0.73584
 Alpha virt. eigenvalues --    0.75890   0.77009   0.79269   0.83531   0.92699
 Alpha virt. eigenvalues --    0.94999   0.95204   0.97609   1.00665   1.04426
 Alpha virt. eigenvalues --    1.07228   1.11767   1.12475   1.18147   1.20805
 Alpha virt. eigenvalues --    1.24587   1.25984   1.31214   1.32457   1.34174
 Alpha virt. eigenvalues --    1.37836   1.43678   1.46499   1.49588   1.55758
 Alpha virt. eigenvalues --    1.59219   1.63526   1.68880   1.74545   1.77285
 Alpha virt. eigenvalues --    1.79557   1.87211   1.89594   1.91412   1.91841
 Alpha virt. eigenvalues --    1.93993   2.00763   2.02653   2.06153   2.13244
 Alpha virt. eigenvalues --    2.14161   2.19100   2.23255   2.31086   2.34457
 Alpha virt. eigenvalues --    2.35898   2.38987   2.41099   2.42141   2.50496
 Alpha virt. eigenvalues --    2.55263   2.59021   2.59326   2.65066   2.66570
 Alpha virt. eigenvalues --    2.72676   2.76154   2.86235   2.88831   2.90832
 Alpha virt. eigenvalues --    2.93049   2.97509   3.01568   3.10217   3.30023
 Alpha virt. eigenvalues --    3.34145   3.41834   3.44998   3.47549   3.48629
 Alpha virt. eigenvalues --    3.56180   3.74586   4.21056   4.33665   4.41736
 Alpha virt. eigenvalues --    4.53320   4.67501
          Condensed to atoms (all electrons):
              1          2          3          4          5          6
     1  C    7.062153   0.136786  -0.003148  -0.094272   0.330226  -0.070485
     2  O    0.136786   8.464883  -0.005313  -0.001720  -0.017185  -0.002160
     3  H   -0.003148  -0.005313   0.742477  -0.141967   0.045141  -0.013011
     4  H   -0.094272  -0.001720  -0.141967   0.757544  -0.063507   0.010171
     5  H    0.330226  -0.017185   0.045141  -0.063507   0.586677  -0.018485
     6  H   -0.070485  -0.002160  -0.013011   0.010171  -0.018485   0.581148
     7  H   -0.131029  -0.000542   0.002691   0.000726   0.001250  -0.022409
     8  H   -0.028009   0.157586   0.012750  -0.012020   0.008349  -0.000887
     9  H   -0.016549   0.007990   0.006502  -0.006339   0.008099  -0.044645
    10  H   -0.061159   0.237214   0.000192   0.001908  -0.001887   0.001099
    11  C   -0.469770  -0.053563   0.366110   0.380682  -0.013841  -0.019279
    12  C   -0.976266  -0.049455  -0.085939   0.088520  -0.095025   0.426643
    13  O   -0.092258  -0.135730  -0.060970  -0.052454   0.018860   0.014796
              7          8          9         10         11         12
     1  C   -0.131029  -0.028009  -0.016549  -0.061159  -0.469770  -0.976266
     2  O   -0.000542   0.157586   0.007990   0.237214  -0.053563  -0.049455
     3  H    0.002691   0.012750   0.006502   0.000192   0.366110  -0.085939
     4  H    0.000726  -0.012020  -0.006339   0.001908   0.380682   0.088520
     5  H    0.001250   0.008349   0.008099  -0.001887  -0.013841  -0.095025
     6  H   -0.022409  -0.000887  -0.044645   0.001099  -0.019279   0.426643
     7  H    0.460614   0.001098  -0.017011   0.000719   0.004238   0.467364
     8  H    0.001098   0.320166  -0.001111  -0.011517   0.000185  -0.017034
     9  H   -0.017011  -0.001111   0.471100  -0.003534   0.018410   0.379976
    10  H    0.000719  -0.011517  -0.003534   0.418050   0.020931   0.035809
    11  C    0.004238   0.000185   0.018410   0.020931   5.440559   0.345356
    12  C    0.467364  -0.017034   0.379976   0.035809   0.345356   6.145157
    13  O    0.009915   0.124838  -0.022481   0.007618   0.240317   0.021811
             13
     1  C   -0.092258
     2  O   -0.135730
     3  H   -0.060970
     4  H   -0.052454
     5  H    0.018860
     6  H    0.014796
     7  H    0.009915
     8  H    0.124838
     9  H   -0.022481
    10  H    0.007618
    11  C    0.240317
    12  C    0.021811
    13  O    8.531647
 Mulliken atomic charges:
              1
     1  C    0.413780
     2  O   -0.738792
     3  H    0.134485
     4  H    0.132727
     5  H    0.211327
     6  H    0.157503
     7  H    0.222376
     8  H    0.445606
     9  H    0.219591
    10  H    0.354557
    11  C   -0.260336
    12  C   -0.686915
    13  O   -0.605909
 Sum of Mulliken atomic charges =   0.00000
 Mulliken charges with hydrogens summed into heavy atoms:
              1
     1  C    0.625107
     2  O    0.061371
    11  C    0.006876
    12  C   -0.087446
    13  O   -0.605909
 Sum of Mulliken charges with hydrogens summed into heavy atoms =   0.00000
 APT atomic charges:
              1
     1  C    0.681145
     2  O   -0.736074
     3  H   -0.014207
     4  H   -0.054724
     5  H    0.002598
     6  H    0.037908
     7  H    0.043490
     8  H    0.417574
     9  H    0.076751
    10  H    0.244040
    11  C    0.311315
    12  C   -0.172281
    13  O   -0.837535
 Sum of APT charges=   0.00000
 APT Atomic charges with hydrogens summed into heavy atoms:
              1
     1  C    0.683744
     2  O   -0.074461
     3  H    0.000000
     4  H    0.000000
     5  H    0.000000
     6  H    0.000000
     7  H    0.000000
     8  H    0.000000
     9  H    0.000000
    10  H    0.000000
    11  C    0.242384
    12  C   -0.014132
    13  O   -0.837535
 Sum of APT charges=   0.00000
 Electronic spatial extent (au):  <R**2>=            588.3533
 Charge=              0.0000 electrons
 Dipole moment (field-independent basis, Debye):
    X=             -3.1927    Y=             -1.8608    Z=             -2.4541  Tot=              4.4361
 Quadrupole moment (field-independent basis, Debye-Ang):
   XX=            -39.8492   YY=            -29.7868   ZZ=            -33.3222
   XY=             -3.0308   XZ=             -2.5731   YZ=             -5.0799
 Traceless Quadrupole moment (field-independent basis, Debye-Ang):
   XX=             -5.5298   YY=              4.5326   ZZ=              0.9972
   XY=             -3.0308   XZ=             -2.5731   YZ=             -5.0799
 Octapole moment (field-independent basis, Debye-Ang**2):
  XXX=            -73.8029  YYY=            -27.4080  ZZZ=            -50.9479  XYY=            -19.9415
  XXY=            -14.7440  XXZ=            -27.9867  XZZ=            -16.2774  YZZ=            -21.2882
  YYZ=            -14.9266  XYZ=             -1.6885
 Hexadecapole moment (field-independent basis, Debye-Ang**3):
 XXXX=           -334.3575 YYYY=           -145.8829 ZZZZ=           -286.0827 XXXY=              0.2988
 XXXZ=            -50.9359 YYYX=             11.2775 YYYZ=             -1.3086 ZZZX=            -18.4691
 ZZZY=            -33.4530 XXYY=            -74.4689 XXZZ=           -102.3894 YYZZ=            -66.7829
 XXYZ=             -2.9199 YYXZ=            -11.7253 ZZXY=              4.5700
 N-N= 1.896462873567D+02 E-N=-1.009563456473D+03  KE= 2.671280870996D+02
  Exact polarizability:  61.965  -3.403  47.071   0.960  -3.297  61.584
 Approx polarizability: 104.795   3.036  62.432  10.803  -0.875  90.229
 PrsmSu:  requested number of processors reduced to:  10 ShMem   1 Linda.
 PrsmSu:  requested number of processors reduced to:  10 ShMem   1 Linda.
 Calling FoFJK, ICntrl=    100127 FMM=F ISym2X=0 I1Cent= 0 IOpClX= 0 NMat=1 NMatS=1 NMatT=0.
 CoulSu:  requested number of processors reduced to:  10 ShMem   1 Linda.
 CalDSu:  requested number of processors reduced to:  23 ShMem   1 Linda.
 -------------------------------------------------------------------
 Center     Atomic                   Forces (Hartrees/Bohr)
 Number     Number              X              Y              Z
 -------------------------------------------------------------------
      1        6           0.011161731    0.008137247    0.002472222
      2        8          -0.002137574    0.005805129   -0.005170927
      3        1           0.008692365    0.010059854   -0.019210958
      4        1           0.004042559   -0.020439070    0.003354262
      5        1          -0.008030756   -0.008496033    0.002004913
      6        1          -0.014223638   -0.000881855   -0.017490708
      7        1           0.010990374    0.009034453   -0.002343741
      8        1           0.002483963    0.001497878   -0.000119038
      9        1          -0.008718729    0.005126012    0.013858767
     10        1          -0.000296750   -0.006852777    0.004258945
     11        6          -0.006579699    0.020484119    0.030839724
     12        6           0.011237576   -0.012260864    0.004972998
     13        8          -0.008621421   -0.011214093   -0.017426460
 -------------------------------------------------------------------
 Cartesian Forces:  Max     0.030839724 RMS     0.010975217
 -----------------------------------------------------------------------------------------------
                       Internal Coordinate Forces (Hartree/Bohr or radian)
  Cent   Atom   N1       Length/X         N2         Alpha/Y        N3         Beta/Z          J
 -----------------------------------------------------------------------------------------------
      1  C 
      2  O        1  -0.001031(     1)
      3  H        1   0.017793(     2)      2   0.045148(    13)
      4  H        1   0.016207(     3)      2  -0.018437(    14)      3   0.033502(    24)     0
      5  H        1   0.011853(     4)      2   0.000717(    15)      4  -0.017659(    25)     0
      6  H        1   0.016496(     5)      2   0.040858(    16)      5  -0.037528(    26)     0
      7  H        1   0.010784(     6)      2   0.000605(    17)      5   0.037592(    27)     0
      8  H        2   0.002601(     7)      1   0.001580(    18)      5   0.019810(    28)     0
      9  H        1   0.012569(     8)      2  -0.042662(    19)      8  -0.017918(    29)     0
     10  H        2   0.008062(     9)      1   0.000373(    20)      5  -0.002599(    30)     0
     11  C        1  -0.018621(    10)      2  -0.029467(    21)     10   0.002004(    31)     0
     12  C        1  -0.015932(    11)     11  -0.015456(    22)      2  -0.008604(    32)     0
     13  O       11  -0.022440(    12)      1  -0.000441(    23)     12  -0.001166(    33)     0
 -----------------------------------------------------------------------------------------------
 Internal  Forces:  Max     0.045148485 RMS     0.020945197

 GradGradGradGradGradGradGradGradGradGradGradGradGradGradGradGradGradGrad
 Berny optimization.
 Search for a saddle point.
 Step number   1 out of a maximum of   42
 All quantities printed in internal units (Hartrees-Bohrs-Radians)
 Swaping is turned off.
 Second derivative matrix not updated -- analytic derivatives used.
 ITU=  0
     Eigenvalues ---   -0.09501  -0.03489   0.00162   0.02213   0.02415
     Eigenvalues ---    0.03723   0.04688   0.05308   0.06342   0.06754
     Eigenvalues ---    0.06981   0.09120   0.10609   0.13059   0.15099
     Eigenvalues ---    0.20998   0.27448   0.34057   0.39742   0.41974
     Eigenvalues ---    0.48735   0.52205   0.55800   0.92019   1.28918
     Eigenvalues ---    1.61161   2.02564   3.59440   4.44288   5.90551
     Eigenvalues ---    8.40941  23.41760
 Eigenvectors required to have negative eigenvalues:
                          A5        A4        D3        D6        A7
   1                    0.50987  -0.47504  -0.44535   0.41267  -0.26212
                          D5        A3        A11       D7        A8
   1                   -0.16634  -0.10093  -0.08730  -0.07072   0.06347
 RFO step:  Lambda0=8.687001700D-08 Lambda=-3.48932734D-02.
 Linear search not attempted -- option 19 set.
 Maximum step size (   0.300) exceeded in Quadratic search.
    -- Step size scaled by   0.396
 Variable       Old X    -DE/DX   Delta X   Delta X   Delta X     New X
                                 (Linear)    (Quad)   (Total)
    B1        3.99013   0.01779   0.00000   0.07887   0.07887   4.06900
    B2        4.03339   0.01621   0.00000   0.01368   0.01368   4.04708
    B3        2.02201   0.01185   0.00000   0.00541   0.00541   2.02742
    B4        3.88941   0.01650   0.00000   0.00615   0.00615   3.89556
    B5        4.01241   0.01078   0.00000   0.00750   0.00750   4.01991
    B6        1.98029   0.00260   0.00000  -0.10935  -0.10935   1.87094
    B7        3.98890   0.01257   0.00000   0.02419   0.02419   4.01308
    B8        1.81414   0.00806   0.00000   0.00378   0.00378   1.81792
    B9        2.80611  -0.01862   0.00000  -0.02895  -0.02895   2.77716
   B10        2.78832  -0.01593   0.00000   0.00366   0.00366   2.79198
   B11        2.70231  -0.02244   0.00000  -0.02122  -0.02122   2.68109
    A1        2.15027   0.04515   0.00000   0.08562   0.08562   2.23589
    A2        1.64516  -0.01844   0.00000   0.04276   0.04276   1.68792
    A3        1.37102   0.00072   0.00000  -0.12798  -0.12798   1.24304
    A4        2.11070   0.04086   0.00000   0.03452   0.03452   2.14522
    A5        1.77586   0.00061   0.00000  -0.02043  -0.02043   1.75544
    A6        1.22939   0.00158   0.00000   0.00452   0.00452   1.23391
    A7        1.27901  -0.04266   0.00000   0.01462   0.01462   1.29363
    A8        2.10166   0.00037   0.00000   0.07238   0.07238   2.17403
    A9        1.70697  -0.02947   0.00000   0.10456   0.10456   1.81153
   A10        2.11641  -0.01546   0.00000   0.00735   0.00735   2.12376
   A11        1.71198  -0.00044   0.00000  -0.12691  -0.12691   1.58507
    D1        0.71886   0.03350   0.00000  -0.00713  -0.00713   0.71173
    D2        1.63127  -0.01766   0.00000  -0.01901  -0.01901   1.61226
    D3        1.63927  -0.03753   0.00000   0.01240   0.01240   1.65167
    D4        2.50727   0.03759   0.00000  -0.00792  -0.00792   2.49935
    D5        2.53571   0.01981   0.00000  -0.00119  -0.00119   2.53452
    D6       -1.94231  -0.01792   0.00000  -0.04092  -0.04092  -1.98323
    D7        0.79154  -0.00260   0.00000   0.00487   0.00487   0.79641
    D8       -1.32086   0.00200   0.00000   0.02901   0.02901  -1.29185
    D9        1.83928  -0.00860   0.00000   0.07164   0.07164   1.91093
   D10        1.19792  -0.00117   0.00000   0.03996   0.03996   1.23788
         Item               Value     Threshold  Converged?
 Maximum Force            0.045148     0.000450     NO 
 RMS     Force            0.021269     0.000300     NO 
 Maximum Displacement     0.127976     0.001800     NO 
 RMS     Displacement     0.053033     0.001200     NO 
 Predicted change in Energy=-3.964349D-03
 GradGradGradGradGradGradGradGradGradGradGradGradGradGradGradGradGradGrad

 ---------------------------------------------------------------------------------------------------
                            Z-MATRIX (ANGSTROMS AND DEGREES)
   CD    Cent   Atom    N1       Length/X        N2       Alpha/Y        N3        Beta/Z          J
 ---------------------------------------------------------------------------------------------------
      1      1  C 
      2      2  O        1   2.285847(     1)
      3      3  H        1   2.153221(     2)      2  128.107(    13)
      4      4  H        1   2.141622(     3)      2   96.711(    14)      3   40.779(    24)      0
      5      5  H        1   1.072865(     4)      2   71.221(    15)      4   92.376(    25)      0
      6      6  H        1   2.061442(     5)      2  122.912(    16)      5   94.634(    26)      0
      7      7  H        1   2.127247(     6)      2  100.579(    17)      5  143.202(    27)      0
      8      8  H        2   0.990058(     7)      1   70.698(    18)      5  145.217(    28)      0
      9      9  H        1   2.123633(     8)      2   74.119(    19)      8 -113.631(    29)      0
     10     10  H        2   0.962003(     9)      1  124.563(    20)      5   45.631(    30)      0
     11     11  C        1   1.469610(    10)      2  103.793(    21)     10  -74.017(    31)      0
     12     12  C        1   1.477451(    11)     11  121.683(    22)      2  109.488(    32)      0
     13     13  O       11   1.418771(    12)      1   90.818(    23)     12   70.925(    33)      0
 ---------------------------------------------------------------------------------------------------
                         Z-Matrix orientation:                         
 ---------------------------------------------------------------------
 Center     Atomic      Atomic             Coordinates (Angstroms)
 Number     Number       Type             X           Y           Z
 ---------------------------------------------------------------------
      1          6           0        0.000000    0.000000    0.000000
      2          8           0        0.000000    0.000000    2.285847
      3          1           0        1.694286    0.000000   -1.328818
      4          1           0        1.610595   -1.389206   -0.250263
      5          1           0       -0.694745   -0.741002    0.345377
      6          1           0       -1.162727    1.281797   -1.120092
      7          1           0        0.231537    2.078230   -0.390551
      8          1           0        0.913774    0.195269    1.958582
      9          1           0       -1.191729    1.658893    0.581097
     10          1           0        0.034228   -0.791472    2.831603
     11          6           0        1.387759   -0.333336   -0.350378
     12          6           0       -0.553175    1.351822   -0.222337
     13          8           0        1.870571    0.460177    0.722069
 ---------------------------------------------------------------------
                    Distance matrix (angstroms):
                    1          2          3          4          5
     1  C    0.000000
     2  O    2.285847   0.000000
     3  H    2.153221   3.992043   0.000000
     4  H    2.141622   3.309949   1.760732   0.000000
     5  H    1.072865   2.190246   3.009897   2.467702   0.000000
     6  H    2.061442   3.820387   3.138326   3.947427   2.541323
     7  H    2.127247   3.396432   2.709062   3.734246   3.057393
     8  H    2.170059   0.990058   3.384424   2.806264   2.463000
     9  H    2.123633   2.660510   3.837810   4.223161   2.462123
    10  H    2.940336   0.962003   4.548771   3.512850   2.591384
    11  C    1.469610   2.997778   1.078153   1.083763   2.233180
    12  C    1.477451   2.902484   2.846542   3.492266   2.173075
    13  O    2.057227   2.481169   2.109260   2.105525   2.857547
                    6          7          8          9         10
     6  H    0.000000
     7  H    1.763663   0.000000
     8  H    3.869190   3.086974   0.000000
     9  H    1.742724   1.773592   2.910807   0.000000
    10  H    4.620286   4.319305   1.584117   3.545707   0.000000
    11  C    3.115461   2.674717   2.415654   3.389747   3.488114
    12  C    1.087392   1.082468   2.871578   1.071238   3.776944
    13  O    3.642734   2.557821   1.585749   3.291576   3.064133
                   11         12         13
    11  C    0.000000
    12  C    2.573593   0.000000
    13  O    1.418771   2.749814   0.000000
 Symmetry turned off by external request.
 Stoichiometry    C3H8O2
 Framework group  C1[X(C3H8O2)]
 Deg. of freedom    33
 Full point group                 C1      NOp   1
 Rotational constants (GHZ):      5.1281521      4.5836572      3.0764613
 Standard basis: 6-31++G(d,p) (6D, 7F)
 The following finite field(s) will be applied:
 An electric field of              0.0000  0.0000 -0.0010
 Integral buffers will be    131072 words long.
 Raffenetti 2 integral format.
 Two-electron integral symmetry is turned off.
   143 basis functions,   224 primitive gaussians,   143 cartesian basis functions
    21 alpha electrons       21 beta electrons
       nuclear repulsion energy       190.5146985701 Hartrees.
 NAtoms=   13 NActive=   13 NUniq=   13 SFac= 1.00D+00 NAtFMM=   50 NAOKFM=F Big=F
 One-electron integrals computed using PRISM.
 PrsmSu:  requested number of processors reduced to:  10 ShMem   1 Linda.
 NBasis=   143 RedAO= T  NBF=   143
 NBsUse=   143 1.00D-06 NBFU=   143
 The nuclear repulsion energy is now       190.4707549371 hartrees.
 Initial guess read from the read-write file.
 B after Tr=     0.000000    0.000000    0.000000
         Rot=    1.000000    0.000000    0.000000    0.000000 Ang=   0.00 deg.
 Harris functional with IExCor=  402 diagonalized for initial guess.
 ExpMin= 3.60D-02 ExpMax= 5.48D+03 ExpMxC= 8.25D+02 IAcc=3 IRadAn=         0 AccDes= 0.00D+00
 HarFok:  IExCor=  402 AccDes= 0.00D+00 IRadAn=         0 IDoV= 1
 ScaDFX=  1.000000  1.000000  1.000000  1.000000
 FoFCou: FMM=F IPFlag=           0 FMFlag=      100000 FMFlg1=           0
         NFxFlg=           0 DoJE=T BraDBF=F KetDBF=T FulRan=T
         Omega=  0.000000  0.000000  1.000000  0.000000  0.000000 ICntrl=     500 IOpCl=  0
         NMat0=    1 NMatS0=    1 NMatT0=    0 NMatD0=    1 NMtDS0=    0 NMtDT0=    0
         I1Cent=           4 NGrid=           0.
 Symmetry not used in FoFCou.
 Requested convergence on RMS density matrix=1.00D-08 within 128 cycles.
 Requested convergence on MAX density matrix=1.00D-06.
 Requested convergence on             energy=1.00D-06.
 No special actions if energy rises.
 SCF Done:  E(RB3LYP) =  -269.492608021     A.U. after   13 cycles
             Convg  =    0.2452D-08             -V/T =  2.0087
 Range of M.O.s used for correlation:     1   143
 NBasis=   143 NAE=    21 NBE=    21 NFC=     0 NFV=     0
 NROrb=    143 NOA=    21 NOB=    21 NVA=   122 NVB=   122

 **** Warning!!: The largest alpha MO coefficient is  0.44712831D+02

 PrsmSu:  requested number of processors reduced to:  10 ShMem   1 Linda.
 PrsmSu:  requested number of processors reduced to:  17 ShMem   1 Linda.
 Symmetrizing basis deriv contribution to polar:
 IMax=3 JMax=2 DiffMx= 0.00D+00
 G2DrvN: will do     3 centers at a time, making    5 passes doing MaxLOS=2.
 Estimated number of processors is:   15
 Calling FoFCou, ICntrl=  3107 FMM=F I1Cent=   0 AccDes= 0.00D+00.
 CoulSu:  requested number of processors reduced to:  15 ShMem   1 Linda.
 Calling FoFCou, ICntrl=  3107 FMM=F I1Cent=   0 AccDes= 0.00D+00.
 CoulSu:  requested number of processors reduced to:  15 ShMem   1 Linda.
 Calling FoFCou, ICntrl=  3107 FMM=F I1Cent=   0 AccDes= 0.00D+00.
 CoulSu:  requested number of processors reduced to:  15 ShMem   1 Linda.
 Calling FoFCou, ICntrl=  3107 FMM=F I1Cent=   0 AccDes= 0.00D+00.
 CoulSu:  requested number of processors reduced to:  15 ShMem   1 Linda.
 Calling FoFCou, ICntrl=  3107 FMM=F I1Cent=   0 AccDes= 0.00D+00.
 CoulSu:  requested number of processors reduced to:  15 ShMem   1 Linda.
 FoFDir/FoFCou used for L=0 through L=2.
 End of G2Drv Frequency-dependent properties file   721 does not exist.
 End of G2Drv Frequency-dependent properties file   722 does not exist.
          IDoAtm=1111111111111
          Differentiating once with respect to electric field.
                with respect to dipole field.
          Differentiating once with respect to nuclear coordinates.
 PrRfSu:  requested number of processors reduced to:  16 ShMem   1 Linda.
 CalDSu:  requested number of processors reduced to:  22 ShMem   1 Linda.
 PrRfSu:  requested number of processors reduced to:  16 ShMem   1 Linda.
 CalDSu:  requested number of processors reduced to:  22 ShMem   1 Linda.
          There are    42 degrees of freedom in the 1st order CPHF.  IDoFFX=5.
     42 vectors produced by pass  0 Test12= 6.10D-15 2.38D-09 XBig12= 9.69D+01 7.54D+00.
 AX will form    21 AO Fock derivatives at one time.
 PrRfSu:  requested number of processors reduced to:  16 ShMem   1 Linda.
 CalDSu:  requested number of processors reduced to:  22 ShMem   1 Linda.
 PrRfSu:  requested number of processors reduced to:  16 ShMem   1 Linda.
 CalDSu:  requested number of processors reduced to:  22 ShMem   1 Linda.
     39 vectors produced by pass  1 Test12= 6.10D-15 2.38D-09 XBig12= 4.34D+01 1.30D+00.
 PrRfSu:  requested number of processors reduced to:  15 ShMem   1 Linda.
 CalDSu:  requested number of processors reduced to:  19 ShMem   1 Linda.
     39 vectors produced by pass  2 Test12= 6.10D-15 2.38D-09 XBig12= 4.72D-01 1.30D-01.
 PrRfSu:  requested number of processors reduced to:  15 ShMem   1 Linda.
 CalDSu:  requested number of processors reduced to:  19 ShMem   1 Linda.
     39 vectors produced by pass  3 Test12= 6.10D-15 2.38D-09 XBig12= 1.72D-03 5.61D-03.
 PrRfSu:  requested number of processors reduced to:  15 ShMem   1 Linda.
 CalDSu:  requested number of processors reduced to:  19 ShMem   1 Linda.
     39 vectors produced by pass  4 Test12= 6.10D-15 2.38D-09 XBig12= 2.60D-06 1.71D-04.
 PrRfSu:  requested number of processors reduced to:  15 ShMem   1 Linda.
 CalDSu:  requested number of processors reduced to:  19 ShMem   1 Linda.
     26 vectors produced by pass  5 Test12= 6.10D-15 2.38D-09 XBig12= 2.00D-09 6.47D-06.
 PrRfSu:  requested number of processors reduced to:  16 ShMem   1 Linda.
 CalDSu:  requested number of processors reduced to:  21 ShMem   1 Linda.
      3 vectors produced by pass  6 Test12= 6.10D-15 2.38D-09 XBig12= 1.57D-12 1.84D-07.
      3 vectors produced by pass  7 Test12= 6.10D-15 2.38D-09 XBig12= 9.31D-15 1.66D-08.
 Inverted reduced A of dimension   230 with in-core refinement.
 Isotropic polarizability for W=    0.000000       54.54 Bohr**3.
 End of Minotr Frequency-dependent properties file   721 does not exist.
 End of Minotr Frequency-dependent properties file   722 does not exist.
 PrsmSu:  requested number of processors reduced to:  10 ShMem   1 Linda.
 PrsmSu:  requested number of processors reduced to:  10 ShMem   1 Linda.
 Calling FoFJK, ICntrl=    100127 FMM=F ISym2X=0 I1Cent= 0 IOpClX= 0 NMat=1 NMatS=1 NMatT=0.
 CoulSu:  requested number of processors reduced to:  10 ShMem   1 Linda.
 CalDSu:  requested number of processors reduced to:  23 ShMem   1 Linda.
 -------------------------------------------------------------------
 Center     Atomic                   Forces (Hartrees/Bohr)
 Number     Number              X              Y              Z
 -------------------------------------------------------------------
      1        6           0.011128942    0.010325409   -0.009629422
      2        8          -0.013868657   -0.000000733    0.018673493
      3        1           0.005832577    0.006817818   -0.013432236
      4        1           0.002244664   -0.010677053    0.000475012
      5        1          -0.002297004   -0.006152970    0.003398356
      6        1          -0.007913635    0.000225978   -0.008607745
      7        1           0.003353479    0.004026587   -0.000252467
      8        1           0.010682281    0.002225803   -0.001471810
      9        1          -0.007911636    0.004202090    0.011363584
     10        1           0.000697271   -0.002926180    0.004232763
     11        6          -0.001438709    0.008270417    0.014541318
     12        6           0.009951301   -0.006517058   -0.008333678
     13        8          -0.010460874   -0.009820110   -0.010957168
 -------------------------------------------------------------------
 Cartesian Forces:  Max     0.018673493 RMS     0.008227179
 -----------------------------------------------------------------------------------------------
                       Internal Coordinate Forces (Hartree/Bohr or radian)
  Cent   Atom   N1       Length/X         N2         Alpha/Y        N3         Beta/Z          J
 -----------------------------------------------------------------------------------------------
      1  C 
      2  O        1   0.021434(     1)
      3  H        1   0.012879(     2)      2   0.028360(    13)
      4  H        1   0.008558(     3)      2  -0.006011(    14)      3   0.021826(    24)     0
      5  H        1   0.006831(     4)      2  -0.002568(    15)      4  -0.004778(    25)     0
      6  H        1   0.009281(     5)      2   0.016542(    16)      5  -0.018672(    26)     0
      7  H        1   0.004345(     6)      2  -0.002230(    17)      5   0.011408(    27)     0
      8  H        2   0.010785(     7)      1   0.004149(    18)      5   0.015240(    28)     0
      9  H        1   0.010832(     8)      2  -0.035046(    19)      8  -0.015339(    29)     0
     10  H        2   0.004834(     9)      1   0.003291(    20)      5  -0.022588(    30)     0
     11  C        1  -0.011740(    10)      2  -0.030476(    21)     10   0.023442(    31)     0
     12  C        1  -0.008435(    11)     11  -0.027665(    22)      2   0.011113(    32)     0
     13  O       11  -0.017335(    12)      1  -0.012847(    23)     12   0.004215(    33)     0
 -----------------------------------------------------------------------------------------------
 Internal  Forces:  Max     0.035046077 RMS     0.016053260

 GradGradGradGradGradGradGradGradGradGradGradGradGradGradGradGradGradGrad
 Berny optimization.
 Search for a saddle point.
 Step number   2 out of a maximum of   42
 All quantities printed in internal units (Hartrees-Bohrs-Radians)
 Swaping is turned off.
 Second derivative matrix not updated -- analytic derivatives used.
 ITU=  0  0
     Eigenvalues ---   -0.05948  -0.03365   0.00381   0.01318   0.01856
     Eigenvalues ---    0.03763   0.04680   0.05241   0.06919   0.07200
     Eigenvalues ---    0.08416   0.09492   0.10036   0.15244   0.16037
     Eigenvalues ---    0.22594   0.26955   0.38584   0.39094   0.39930
     Eigenvalues ---    0.48297   0.51338   0.54998   0.87348   1.29833
     Eigenvalues ---    1.68430   2.02284   3.47277   4.01706   5.48600
     Eigenvalues ---    8.31157  21.74358
 Eigenvectors required to have negative eigenvalues:
                          A11       A5        D3        A3        A4
   1                    0.44763  -0.33042   0.30213   0.30192   0.28859
                          A9        D9        D6        A8        A7
   1                   -0.28258  -0.21110  -0.20867  -0.20295   0.20242
 RFO step:  Lambda0=2.941287903D-03 Lambda=-3.46051811D-02.
 Linear search not attempted -- option 19 set.
 Maximum step size (   0.300) exceeded in Quadratic search.
    -- Step size scaled by   0.382
 Variable       Old X    -DE/DX   Delta X   Delta X   Delta X     New X
                                 (Linear)    (Quad)   (Total)
    B1        4.06900   0.01288   0.00000   0.02911   0.02911   4.09811
    B2        4.04708   0.00856   0.00000   0.01529   0.01529   4.06237
    B3        2.02742   0.00683   0.00000   0.00388   0.00388   2.03130
    B4        3.89556   0.00928   0.00000   0.00357   0.00357   3.89913
    B5        4.01991   0.00435   0.00000   0.00511   0.00511   4.02502
    B6        1.87094   0.01078   0.00000  -0.00342  -0.00342   1.86752
    B7        4.01308   0.01083   0.00000   0.02290   0.02290   4.03599
    B8        1.81792   0.00483   0.00000   0.00264   0.00264   1.82056
    B9        2.77716  -0.01174   0.00000  -0.00682  -0.00682   2.77034
   B10        2.79198  -0.00843   0.00000   0.00586   0.00586   2.79783
   B11        2.68109  -0.01733   0.00000  -0.01613  -0.01613   2.66496
    A1        2.23589   0.02836   0.00000   0.02557   0.02557   2.26146
    A2        1.68792  -0.00601   0.00000   0.04815   0.04815   1.73607
    A3        1.24304  -0.00257   0.00000  -0.02279  -0.02279   1.22024
    A4        2.14522   0.01654   0.00000   0.11154   0.11154   2.25677
    A5        1.75544  -0.00223   0.00000  -0.14010  -0.14010   1.61534
    A6        1.23391   0.00415   0.00000   0.00378   0.00378   1.23769
    A7        1.29363  -0.03505   0.00000   0.07024   0.07024   1.36386
    A8        2.17403   0.00329   0.00000   0.02139   0.02139   2.19542
    A9        1.81153  -0.03048   0.00000   0.04564   0.04564   1.85717
   A10        2.12376  -0.02767   0.00000  -0.00229  -0.00229   2.12147
   A11        1.58507  -0.01285   0.00000  -0.04919  -0.04919   1.53588
    D1        0.71173   0.02183   0.00000   0.03708   0.03708   0.74881
    D2        1.61226  -0.00478   0.00000  -0.01044  -0.01044   1.60182
    D3        1.65167  -0.01867   0.00000   0.14215   0.14215   1.79382
    D4        2.49935   0.01141   0.00000  -0.00037  -0.00037   2.49898
    D5        2.53452   0.01524   0.00000   0.01046   0.01046   2.54497
    D6       -1.98323  -0.01534   0.00000  -0.12678  -0.12678  -2.11000
    D7        0.79641  -0.02259   0.00000   0.00830   0.00830   0.80471
    D8       -1.29185   0.02344   0.00000   0.01634   0.01634  -1.27550
    D9        1.91093   0.01111   0.00000   0.02679   0.02679   1.93772
   D10        1.23788   0.00422   0.00000   0.05984   0.05984   1.29772
         Item               Value     Threshold  Converged?
 Maximum Force            0.035046     0.000450     NO 
 RMS     Force            0.015856     0.000300     NO 
 Maximum Displacement     0.142150     0.001800     NO 
 RMS     Displacement     0.053033     0.001200     NO 
 Predicted change in Energy=-3.105660D-03
 GradGradGradGradGradGradGradGradGradGradGradGradGradGradGradGradGradGrad

 ---------------------------------------------------------------------------------------------------
                            Z-MATRIX (ANGSTROMS AND DEGREES)
   CD    Cent   Atom    N1       Length/X        N2       Alpha/Y        N3        Beta/Z          J
 ---------------------------------------------------------------------------------------------------
      1      1  C 
      2      2  O        1   2.285847(     1)
      3      3  H        1   2.168625(     2)      2  129.572(    13)
      4      4  H        1   2.149712(     3)      2   99.469(    14)      3   42.904(    24)      0
      5      5  H        1   1.074920(     4)      2   69.915(    15)      4   91.777(    25)      0
      6      6  H        1   2.063333(     5)      2  129.303(    16)      5  102.779(    26)      0
      7      7  H        1   2.129951(     6)      2   92.552(    17)      5  143.181(    27)      0
      8      8  H        2   0.988251(     7)      1   70.914(    18)      5  145.816(    28)      0
      9      9  H        1   2.135753(     8)      2   78.144(    19)      8 -120.894(    29)      0
     10     10  H        2   0.963399(     9)      1  125.788(    20)      5   46.107(    30)      0
     11     11  C        1   1.466001(    10)      2  106.408(    21)     10  -73.081(    31)      0
     12     12  C        1   1.480549(    11)     11  121.551(    22)      2  111.023(    32)      0
     13     13  O       11   1.410237(    12)      1   87.999(    23)     12   74.354(    33)      0
 ---------------------------------------------------------------------------------------------------
                         Z-Matrix orientation:                         
 ---------------------------------------------------------------------
 Center     Atomic      Atomic             Coordinates (Angstroms)
 Number     Number       Type             X           Y           Z
 ---------------------------------------------------------------------
      1          6           0        0.000000    0.000000    0.000000
      2          8           0        0.000000    0.000000    2.285847
      3          1           0        1.671629    0.000000   -1.381518
      4          1           0        1.553210   -1.443510   -0.353668
      5          1           0       -0.709872   -0.717821    0.369144
      6          1           0       -0.858812    1.345966   -1.306965
      7          1           0        0.291072    2.107836   -0.094842
      8          1           0        0.916345    0.180367    1.962706
      9          1           0       -1.399412    1.552589    0.438810
     10          1           0        0.019443   -0.781250    2.849236
     11          6           0        1.355192   -0.375664   -0.414112
     12          6           0       -0.524773    1.367576   -0.215350
     13          8           0        1.842241    0.362741    0.684210
 ---------------------------------------------------------------------
                    Distance matrix (angstroms):
                    1          2          3          4          5
     1  C    0.000000
     2  O    2.285847   0.000000
     3  H    2.168625   4.030373   0.000000
     4  H    2.149712   3.385737   1.776012   0.000000
     5  H    1.074920   2.166318   3.041650   2.484073   0.000000
     6  H    2.063333   3.931600   2.867110   3.808911   2.662845
     7  H    2.129951   3.193020   2.829213   3.777835   3.033399
     8  H    2.173577   0.988251   3.433194   2.899683   2.447603
     9  H    2.135753   2.789343   3.892997   4.280492   2.373833
    10  H    2.954467   0.963399   4.608617   3.612425   2.585880
    11  C    1.466001   3.044248   1.084956   1.087731   2.234961
    12  C    1.480549   2.898557   2.838026   3.498478   2.173655
    13  O    1.998393   2.467929   2.104262   2.103157   2.789293
                    6          7          8          9         10
     6  H    0.000000
     7  H    1.836279   0.000000
     8  H    3.898789   2.887838   0.000000
     9  H    1.839204   1.857638   3.093216   0.000000
    10  H    4.750830   4.133787   1.585899   3.642816   0.000000
    11  C    2.943300   2.720672   2.480126   3.468931   3.549390
    12  C    1.141785   1.108201   2.868835   1.107768   3.782236
    13  O    3.496741   2.461383   1.589055   3.461831   3.052645
                   11         12         13
    11  C    0.000000
    12  C    2.571509   0.000000
    13  O    1.410237   2.724271   0.000000
 Symmetry turned off by external request.
 Stoichiometry    C3H8O2
 Framework group  C1[X(C3H8O2)]
 Deg. of freedom    33
 Full point group                 C1      NOp   1
 Rotational constants (GHZ):      5.2574318      4.5418824      3.0643159
 Standard basis: 6-31++G(d,p) (6D, 7F)
 The following finite field(s) will be applied:
 An electric field of              0.0000  0.0000 -0.0010
 Integral buffers will be    131072 words long.
 Raffenetti 2 integral format.
 Two-electron integral symmetry is turned off.
   143 basis functions,   224 primitive gaussians,   143 cartesian basis functions
    21 alpha electrons       21 beta electrons
       nuclear repulsion energy       190.6306304489 Hartrees.
 NAtoms=   13 NActive=   13 NUniq=   13 SFac= 1.00D+00 NAtFMM=   50 NAOKFM=F Big=F
 One-electron integrals computed using PRISM.
 PrsmSu:  requested number of processors reduced to:  10 ShMem   1 Linda.
 NBasis=   143 RedAO= T  NBF=   143
 NBsUse=   143 1.00D-06 NBFU=   143
 The nuclear repulsion energy is now       190.5881747602 hartrees.
 Initial guess read from the read-write file.
 B after Tr=     0.000000    0.000000    0.000000
         Rot=    1.000000    0.000000    0.000000    0.000000 Ang=   0.00 deg.
 Harris functional with IExCor=  402 diagonalized for initial guess.
 ExpMin= 3.60D-02 ExpMax= 5.48D+03 ExpMxC= 8.25D+02 IAcc=3 IRadAn=         0 AccDes= 0.00D+00
 HarFok:  IExCor=  402 AccDes= 0.00D+00 IRadAn=         0 IDoV= 1
 ScaDFX=  1.000000  1.000000  1.000000  1.000000
 FoFCou: FMM=F IPFlag=           0 FMFlag=      100000 FMFlg1=           0
         NFxFlg=           0 DoJE=T BraDBF=F KetDBF=T FulRan=T
         Omega=  0.000000  0.000000  1.000000  0.000000  0.000000 ICntrl=     500 IOpCl=  0
         NMat0=    1 NMatS0=    1 NMatT0=    0 NMatD0=    1 NMtDS0=    0 NMtDT0=    0
         I1Cent=           4 NGrid=           0.
 Symmetry not used in FoFCou.
 Requested convergence on RMS density matrix=1.00D-08 within 128 cycles.
 Requested convergence on MAX density matrix=1.00D-06.
 Requested convergence on             energy=1.00D-06.
 No special actions if energy rises.
 SCF Done:  E(RB3LYP) =  -269.492199304     A.U. after   13 cycles
             Convg  =    0.5624D-08             -V/T =  2.0092
 Range of M.O.s used for correlation:     1   143
 NBasis=   143 NAE=    21 NBE=    21 NFC=     0 NFV=     0
 NROrb=    143 NOA=    21 NOB=    21 NVA=   122 NVB=   122

 **** Warning!!: The largest alpha MO coefficient is  0.41489905D+02

 PrsmSu:  requested number of processors reduced to:  10 ShMem   1 Linda.
 PrsmSu:  requested number of processors reduced to:  17 ShMem   1 Linda.
 Symmetrizing basis deriv contribution to polar:
 IMax=3 JMax=2 DiffMx= 0.00D+00
 G2DrvN: will do     3 centers at a time, making    5 passes doing MaxLOS=2.
 Estimated number of processors is:   15
 Calling FoFCou, ICntrl=  3107 FMM=F I1Cent=   0 AccDes= 0.00D+00.
 CoulSu:  requested number of processors reduced to:  15 ShMem   1 Linda.
 Calling FoFCou, ICntrl=  3107 FMM=F I1Cent=   0 AccDes= 0.00D+00.
 CoulSu:  requested number of processors reduced to:  15 ShMem   1 Linda.
 Calling FoFCou, ICntrl=  3107 FMM=F I1Cent=   0 AccDes= 0.00D+00.
 CoulSu:  requested number of processors reduced to:  15 ShMem   1 Linda.
 Calling FoFCou, ICntrl=  3107 FMM=F I1Cent=   0 AccDes= 0.00D+00.
 CoulSu:  requested number of processors reduced to:  15 ShMem   1 Linda.
 Calling FoFCou, ICntrl=  3107 FMM=F I1Cent=   0 AccDes= 0.00D+00.
 CoulSu:  requested number of processors reduced to:  15 ShMem   1 Linda.
 FoFDir/FoFCou used for L=0 through L=2.
 End of G2Drv Frequency-dependent properties file   721 does not exist.
 End of G2Drv Frequency-dependent properties file   722 does not exist.
          IDoAtm=1111111111111
          Differentiating once with respect to electric field.
                with respect to dipole field.
          Differentiating once with respect to nuclear coordinates.
 PrRfSu:  requested number of processors reduced to:  16 ShMem   1 Linda.
 CalDSu:  requested number of processors reduced to:  22 ShMem   1 Linda.
 PrRfSu:  requested number of processors reduced to:  16 ShMem   1 Linda.
 CalDSu:  requested number of processors reduced to:  22 ShMem   1 Linda.
          There are    42 degrees of freedom in the 1st order CPHF.  IDoFFX=5.
     42 vectors produced by pass  0 Test12= 6.10D-15 2.38D-09 XBig12= 8.49D+01 6.13D+00.
 AX will form    21 AO Fock derivatives at one time.
 PrRfSu:  requested number of processors reduced to:  16 ShMem   1 Linda.
 CalDSu:  requested number of processors reduced to:  22 ShMem   1 Linda.
 PrRfSu:  requested number of processors reduced to:  16 ShMem   1 Linda.
 CalDSu:  requested number of processors reduced to:  22 ShMem   1 Linda.
     39 vectors produced by pass  1 Test12= 6.10D-15 2.38D-09 XBig12= 3.91D+01 1.08D+00.
 PrRfSu:  requested number of processors reduced to:  15 ShMem   1 Linda.
 CalDSu:  requested number of processors reduced to:  19 ShMem   1 Linda.
     39 vectors produced by pass  2 Test12= 6.10D-15 2.38D-09 XBig12= 4.29D-01 1.25D-01.
 PrRfSu:  requested number of processors reduced to:  15 ShMem   1 Linda.
 CalDSu:  requested number of processors reduced to:  19 ShMem   1 Linda.
     39 vectors produced by pass  3 Test12= 6.10D-15 2.38D-09 XBig12= 1.87D-03 6.36D-03.
 PrRfSu:  requested number of processors reduced to:  15 ShMem   1 Linda.
 CalDSu:  requested number of processors reduced to:  19 ShMem   1 Linda.
     39 vectors produced by pass  4 Test12= 6.10D-15 2.38D-09 XBig12= 3.09D-06 1.79D-04.
 PrRfSu:  requested number of processors reduced to:  15 ShMem   1 Linda.
 CalDSu:  requested number of processors reduced to:  19 ShMem   1 Linda.
     26 vectors produced by pass  5 Test12= 6.10D-15 2.38D-09 XBig12= 2.57D-09 5.85D-06.
 PrRfSu:  requested number of processors reduced to:  16 ShMem   1 Linda.
 CalDSu:  requested number of processors reduced to:  21 ShMem   1 Linda.
      3 vectors produced by pass  6 Test12= 6.10D-15 2.38D-09 XBig12= 1.99D-12 1.48D-07.
      3 vectors produced by pass  7 Test12= 6.10D-15 2.38D-09 XBig12= 9.52D-15 2.20D-08.
 Inverted reduced A of dimension   230 with in-core refinement.
 Isotropic polarizability for W=    0.000000       54.36 Bohr**3.
 End of Minotr Frequency-dependent properties file   721 does not exist.
 End of Minotr Frequency-dependent properties file   722 does not exist.
 PrsmSu:  requested number of processors reduced to:  10 ShMem   1 Linda.
 PrsmSu:  requested number of processors reduced to:  10 ShMem   1 Linda.
 Calling FoFJK, ICntrl=    100127 FMM=F ISym2X=0 I1Cent= 0 IOpClX= 0 NMat=1 NMatS=1 NMatT=0.
 CoulSu:  requested number of processors reduced to:  10 ShMem   1 Linda.
 CalDSu:  requested number of processors reduced to:  23 ShMem   1 Linda.
 -------------------------------------------------------------------
 Center     Atomic                   Forces (Hartrees/Bohr)
 Number     Number              X              Y              Z
 -------------------------------------------------------------------
      1        6           0.012544873    0.008772662   -0.011594936
      2        8          -0.013021839    0.000808107    0.024201342
      3        1           0.004024771    0.004586410   -0.009260425
      4        1           0.001345982   -0.008017856   -0.000601034
      5        1           0.001073664   -0.005921782    0.003130552
      6        1           0.002624577    0.006595454    0.019407516
      7        1          -0.012487637   -0.004496852   -0.002117642
      8        1           0.006642076   -0.001305065   -0.000491198
      9        1           0.010411591    0.003572885   -0.007256265
     10        1           0.001035665   -0.001177373    0.003544723
     11        6          -0.000789097    0.004569701    0.005576031
     12        6          -0.005340955   -0.001465856   -0.017782837
     13        8          -0.008063669   -0.006520434   -0.006755828
 -------------------------------------------------------------------
 Cartesian Forces:  Max     0.024201342 RMS     0.008405500
 -----------------------------------------------------------------------------------------------
                       Internal Coordinate Forces (Hartree/Bohr or radian)
  Cent   Atom   N1       Length/X         N2         Alpha/Y        N3         Beta/Z          J
 -----------------------------------------------------------------------------------------------
      1  C 
      2  O        1   0.027255(     1)
      3  H        1   0.009002(     2)      2   0.018746(    13)
      4  H        1   0.006455(     3)      2  -0.001899(    14)      3   0.014381(    24)     0
      5  H        1   0.004321(     4)      2  -0.003562(    15)      4  -0.005481(    25)     0
      6  H        1  -0.009083(     5)      2  -0.068801(    16)      5   0.017380(    26)     0
      7  H        1  -0.006062(     6)      2   0.009620(    17)      5  -0.047268(    27)     0
      8  H        2   0.006081(     7)      1   0.002959(    18)      5  -0.044520(    28)     0
      9  H        1  -0.005716(     8)      2   0.025082(    19)      8   0.039996(    29)     0
     10  H        2   0.003049(     9)      1   0.003954(    20)      5   0.010713(    30)     0
     11  C        1  -0.007350(    10)      2  -0.026971(    21)     10  -0.009227(    31)     0
     12  C        1   0.003126(    11)     11  -0.006885(    22)      2   0.038374(    32)     0
     13  O       11  -0.011461(    12)      1  -0.011400(    23)     12   0.005008(    33)     0
 -----------------------------------------------------------------------------------------------
 Internal  Forces:  Max     0.068801226 RMS     0.022075624

 GradGradGradGradGradGradGradGradGradGradGradGradGradGradGradGradGradGrad
 Berny optimization.
 Search for a saddle point.
 Step number   3 out of a maximum of   42
 All quantities printed in internal units (Hartrees-Bohrs-Radians)
 Swaping is turned off.
 Second derivative matrix not updated -- analytic derivatives used.
 ITU=  0  0  0
     Eigenvalues ---   -0.06457  -0.00380   0.00840   0.01351   0.03840
     Eigenvalues ---    0.04445   0.05105   0.06563   0.07025   0.07642
     Eigenvalues ---    0.09171   0.10148   0.12347   0.14567   0.16513
     Eigenvalues ---    0.23285   0.28592   0.38575   0.39205   0.41138
     Eigenvalues ---    0.49312   0.52814   0.54469   0.85260   1.28416
     Eigenvalues ---    1.62907   1.89540   3.20498   3.74836   5.39450
     Eigenvalues ---    7.11541  20.80466
 Eigenvectors required to have negative eigenvalues:
                          A11       A9        A3        D9        D10
   1                    0.58071  -0.36666   0.33062  -0.30023  -0.27843
                          A8        A1        A2        B1        B4
   1                   -0.22888  -0.22843  -0.20365  -0.16469  -0.12656
 RFO step:  Lambda0=5.442570142D-03 Lambda=-6.32434108D-03.
 Linear search not attempted -- option 19 set.
 Maximum step size (   0.300) exceeded in Quadratic search.
    -- Step size scaled by   0.372
 Variable       Old X    -DE/DX   Delta X   Delta X   Delta X     New X
                                 (Linear)    (Quad)   (Total)
    B1        4.09811   0.00900   0.00000  -0.01798  -0.01798   4.08013
    B2        4.06237   0.00646   0.00000   0.00477   0.00477   4.06714
    B3        2.03130   0.00432   0.00000   0.01036   0.01036   2.04167
    B4        3.89913  -0.00908   0.00000  -0.00295  -0.00295   3.89618
    B5        4.02502  -0.00606   0.00000  -0.00176  -0.00176   4.02326
    B6        1.86752   0.00608   0.00000   0.02078   0.02078   1.88830
    B7        4.03599  -0.00572   0.00000   0.00160   0.00160   4.03759
    B8        1.82056   0.00305   0.00000   0.00330   0.00330   1.82386
    B9        2.77034  -0.00735   0.00000   0.01121   0.01121   2.78155
   B10        2.79783   0.00313   0.00000  -0.00543  -0.00543   2.79240
   B11        2.66496  -0.01146   0.00000  -0.01466  -0.01466   2.65031
    A1        2.26146   0.01875   0.00000  -0.00921  -0.00921   2.25225
    A2        1.73607  -0.00190   0.00000   0.07034   0.07034   1.80641
    A3        1.22024  -0.00356   0.00000   0.08581   0.08581   1.30605
    A4        2.25677  -0.06880   0.00000  -0.10772  -0.10772   2.14904
    A5        1.61534   0.00962   0.00000  -0.08666  -0.08666   1.52868
    A6        1.23769   0.00296   0.00000  -0.01090  -0.01090   1.22679
    A7        1.36386   0.02508   0.00000  -0.09335  -0.09335   1.27051
    A8        2.19542   0.00395   0.00000  -0.06036  -0.06036   2.13506
    A9        1.85717  -0.02697   0.00000   0.00382   0.00382   1.86099
   A10        2.12147  -0.00689   0.00000   0.00784   0.00784   2.12931
   A11        1.53588  -0.01140   0.00000   0.07573   0.07573   1.61161
    D1        0.74881   0.01438   0.00000   0.08241   0.08241   0.83122
    D2        1.60182  -0.00548   0.00000  -0.02521  -0.02521   1.57661
    D3        1.79382   0.01738   0.00000   0.05524   0.05524   1.84906
    D4        2.49898  -0.04727   0.00000   0.02899   0.02899   2.52797
    D5        2.54497  -0.04452   0.00000  -0.07322  -0.07322   2.47176
    D6       -2.11000   0.04000   0.00000  -0.03515  -0.03515  -2.14515
    D7        0.80471   0.01071   0.00000  -0.05423  -0.05423   0.75048
    D8       -1.27550  -0.00923   0.00000  -0.05531  -0.05531  -1.33081
    D9        1.93772   0.03837   0.00000  -0.12204  -0.12204   1.81569
   D10        1.29772   0.00501   0.00000  -0.01065  -0.01065   1.28707
         Item               Value     Threshold  Converged?
 Maximum Force            0.068801     0.000450     NO 
 RMS     Force            0.021894     0.000300     NO 
 Maximum Displacement     0.122036     0.001800     NO 
 RMS     Displacement     0.053033     0.001200     NO 
 Predicted change in Energy=-5.495787D-04
 GradGradGradGradGradGradGradGradGradGradGradGradGradGradGradGradGradGrad

 ---------------------------------------------------------------------------------------------------
                            Z-MATRIX (ANGSTROMS AND DEGREES)
   CD    Cent   Atom    N1       Length/X        N2       Alpha/Y        N3        Beta/Z          J
 ---------------------------------------------------------------------------------------------------
      1      1  C 
      2      2  O        1   2.285847(     1)
      3      3  H        1   2.159111(     2)      2  129.044(    13)
      4      4  H        1   2.152236(     3)      2  103.500(    14)      3   47.625(    24)      0
      5      5  H        1   1.080403(     4)      2   74.831(    15)      4   90.333(    25)      0
      6      6  H        1   2.061772(     5)      2  123.131(    16)      5  105.944(    26)      0
      7      7  H        1   2.129018(     6)      2   87.587(    17)      5  144.842(    27)      0
      8      8  H        2   0.999246(     7)      1   70.290(    18)      5  141.621(    28)      0
      9      9  H        1   2.136600(     8)      2   72.795(    19)      8 -122.908(    29)      0
     10     10  H        2   0.965145(     9)      1  122.330(    20)      5   42.999(    30)      0
     11     11  C        1   1.471931(    10)      2  106.627(    21)     10  -76.250(    31)      0
     12     12  C        1   1.477677(    11)     11  122.000(    22)      2  104.031(    32)      0
     13     13  O       11   1.402482(    12)      1   92.338(    23)     12   73.744(    33)      0
 ---------------------------------------------------------------------------------------------------
                         Z-Matrix orientation:                         
 ---------------------------------------------------------------------
 Center     Atomic      Atomic             Coordinates (Angstroms)
 Number     Number       Type             X           Y           Z
 ---------------------------------------------------------------------
      1          6           0        0.000000    0.000000    0.000000
      2          8           0        0.000000    0.000000    2.285847
      3          1           0        1.676897    0.000000   -1.360065
      4          1           0        1.410474   -1.546047   -0.502418
      5          1           0       -0.774418   -0.698303    0.282702
      6          1           0       -0.759529    1.550538   -1.126875
      7          1           0        0.471290    2.074263    0.089636
      8          1           0        0.938780    0.060095    1.948841
      9          1           0       -1.216057    1.639161    0.631994
     10          1           0       -0.070499   -0.812479    2.802000
     11          6           0        1.335859   -0.452409   -0.421176
     12          6           0       -0.403037    1.420068   -0.067054
     13          8           0        1.942433    0.088331    0.721901
 ---------------------------------------------------------------------
                    Distance matrix (angstroms):
                    1          2          3          4          5
     1  C    0.000000
     2  O    2.285847   0.000000
     3  H    2.159111   4.013060   0.000000
     4  H    2.152236   3.486276   1.787960   0.000000
     5  H    1.080403   2.258305   3.032367   2.471605   0.000000
     6  H    2.061772   3.824621   2.897364   3.832454   2.654132
     7  H    2.129018   3.057454   2.803157   3.786719   3.045683
     8  H    2.164001   0.999246   3.390765   2.968309   2.507237
     9  H    2.136600   2.626951   3.876123   4.281484   2.404327
    10  H    2.918269   0.965145   4.586534   3.694669   2.618282
    11  C    1.471931   3.052403   1.096583   1.099187   2.238119
    12  C    1.477677   2.777620   2.831006   3.503741   2.178933
    13  O    2.074124   2.495351   2.100689   2.110243   2.862336
                    6          7          8          9         10
     6  H    0.000000
     7  H    1.808067   0.000000
     8  H    3.816505   2.780659   0.000000
     9  H    1.819311   1.824995   2.978399   0.000000
    10  H    4.636235   3.997966   1.583638   3.468683   0.000000
    11  C    2.983364   2.718911   2.457094   3.463539   3.535018
    12  C    1.125758   1.103164   2.777379   1.094382   3.650523
    13  O    3.585613   2.551068   1.585402   3.519832   3.031528
                   11         12         13
    11  C    0.000000
    12  C    2.579793   0.000000
    13  O    1.402482   2.810196   0.000000
 Symmetry turned off by external request.
 Stoichiometry    C3H8O2
 Framework group  C1[X(C3H8O2)]
 Deg. of freedom    33
 Full point group                 C1      NOp   1
 Rotational constants (GHZ):      5.1891443      4.5976047      3.0417524
 Standard basis: 6-31++G(d,p) (6D, 7F)
 The following finite field(s) will be applied:
 An electric field of              0.0000  0.0000 -0.0010
 Integral buffers will be    131072 words long.
 Raffenetti 2 integral format.
 Two-electron integral symmetry is turned off.
   143 basis functions,   224 primitive gaussians,   143 cartesian basis functions
    21 alpha electrons       21 beta electrons
       nuclear repulsion energy       190.1484141733 Hartrees.
 NAtoms=   13 NActive=   13 NUniq=   13 SFac= 1.00D+00 NAtFMM=   50 NAOKFM=F Big=F
 One-electron integrals computed using PRISM.
 PrsmSu:  requested number of processors reduced to:  10 ShMem   1 Linda.
 NBasis=   143 RedAO= T  NBF=   143
 NBsUse=   143 1.00D-06 NBFU=   143
 The nuclear repulsion energy is now       190.1032527103 hartrees.
 Initial guess read from the read-write file.
 B after Tr=     0.000000    0.000000    0.000000
         Rot=    1.000000    0.000000    0.000000    0.000000 Ang=   0.00 deg.
 Harris functional with IExCor=  402 diagonalized for initial guess.
 ExpMin= 3.60D-02 ExpMax= 5.48D+03 ExpMxC= 8.25D+02 IAcc=3 IRadAn=         0 AccDes= 0.00D+00
 HarFok:  IExCor=  402 AccDes= 0.00D+00 IRadAn=         0 IDoV= 1
 ScaDFX=  1.000000  1.000000  1.000000  1.000000
 FoFCou: FMM=F IPFlag=           0 FMFlag=      100000 FMFlg1=           0
         NFxFlg=           0 DoJE=T BraDBF=F KetDBF=T FulRan=T
         Omega=  0.000000  0.000000  1.000000  0.000000  0.000000 ICntrl=     500 IOpCl=  0
         NMat0=    1 NMatS0=    1 NMatT0=    0 NMatD0=    1 NMtDS0=    0 NMtDT0=    0
         I1Cent=           4 NGrid=           0.
 Symmetry not used in FoFCou.
 Requested convergence on RMS density matrix=1.00D-08 within 128 cycles.
 Requested convergence on MAX density matrix=1.00D-06.
 Requested convergence on             energy=1.00D-06.
 No special actions if energy rises.
 SCF Done:  E(RB3LYP) =  -269.492389880     A.U. after   13 cycles
[...]
     12  C        1   0.000017(    11)     11   0.000063(    22)      2   0.000017(    32)     0
     13  O       11   0.000000(    12)      1   0.000002(    23)     12   0.000001(    33)     0
 -----------------------------------------------------------------------------------------------
 Internal  Forces:  Max     0.001345681 RMS     0.000238359

 GradGradGradGradGradGradGradGradGradGradGradGradGradGradGradGradGradGrad
 Berny optimization.
 Search for a saddle point.
 Step number   1 out of a maximum of    2
 All quantities printed in internal units (Hartrees-Bohrs-Radians)
 Swaping is turned off.
 Second derivative matrix not updated -- analytic derivatives used.
 ITU=  0
     Eigenvalues ---   -0.04103   0.00682   0.01575   0.02263   0.02961
     Eigenvalues ---    0.04302   0.05193   0.05807   0.06540   0.06651
     Eigenvalues ---    0.07127   0.09515   0.10776   0.13196   0.16509
     Eigenvalues ---    0.23890   0.30339   0.35445   0.36111   0.42951
     Eigenvalues ---    0.50845   0.52788   0.56151   0.90126   1.31990
     Eigenvalues ---    1.55766   2.04911   3.18421   4.15184   4.92761
     Eigenvalues ---    7.40811  20.80064
 Eigenvectors required to have negative eigenvalues:
                          A3        A11       A9        B6        A1
   1                    0.44679   0.42712  -0.37085   0.33204  -0.26792
                          D9        A8        A2        D10       B1
   1                   -0.24175  -0.23470  -0.22698  -0.22598  -0.18554
 Angle between quadratic step and forces=  65.22 degrees.
 Linear search not attempted -- option 19 set.
 Variable       Old X    -DE/DX   Delta X   Delta X   Delta X     New X
                                 (Linear)    (Quad)   (Total)
    B1        4.03978   0.00000   0.00000   0.00000   0.00000   4.03978
    B2        4.08038   0.00000   0.00000   0.00000   0.00000   4.08038
    B3        2.05411   0.00000   0.00000   0.00000   0.00000   2.05411
    B4        3.94164  -0.00003   0.00000   0.00003   0.00003   3.94166
    B5        4.04205  -0.00002   0.00000  -0.00001  -0.00001   4.04204
    B6        1.97756   0.00000   0.00000   0.00001   0.00001   1.97758
    B7        4.01975  -0.00003   0.00000  -0.00001  -0.00001   4.01974
    B8        1.82888   0.00000   0.00000   0.00000   0.00000   1.82888
    B9        2.80751   0.00000   0.00000   0.00000   0.00000   2.80752
   B10        2.78878   0.00002   0.00000   0.00000   0.00000   2.78878
   B11        2.62049   0.00000   0.00000   0.00000   0.00000   2.62049
    A1        2.15709   0.00000   0.00000  -0.00001  -0.00001   2.15708
    A2        1.63123   0.00000   0.00000   0.00000   0.00000   1.63122
    A3        1.37995   0.00000   0.00000   0.00000   0.00000   1.37995
    A4        2.10204  -0.00009   0.00000  -0.00010  -0.00010   2.10194
    A5        1.78075   0.00000   0.00000   0.00006   0.00006   1.78081
    A6        1.23705   0.00000   0.00000   0.00000   0.00000   1.23705
    A7        1.26063   0.00012   0.00000  -0.00001  -0.00001   1.26063
    A8        2.11450   0.00000   0.00000   0.00001   0.00001   2.11451
    A9        1.69733   0.00001   0.00000  -0.00001  -0.00001   1.69732
   A10        2.11682   0.00006   0.00000   0.00000   0.00000   2.11682
   A11        1.72160   0.00000   0.00000   0.00001   0.00001   1.72161
    D1        0.72684   0.00000   0.00000   0.00000   0.00000   0.72684
    D2        1.62350   0.00000   0.00000  -0.00001  -0.00001   1.62349
    D3        1.62273   0.00010   0.00000   0.00001   0.00001   1.62274
    D4        2.51335  -0.00010   0.00000  -0.00002  -0.00002   2.51333
    D5        2.54525  -0.00006   0.00000  -0.00002  -0.00002   2.54523
    D6       -1.92441   0.00006   0.00000   0.00010   0.00010  -1.92431
    D7        0.79886   0.00007   0.00000  -0.00002  -0.00002   0.79884
    D8       -1.31615  -0.00007   0.00000  -0.00002  -0.00002  -1.31617
    D9        1.82713   0.00002   0.00000  -0.00001  -0.00001   1.82711
   D10        1.17317   0.00000   0.00000  -0.00001  -0.00001   1.17316
         Item               Value     Threshold  Converged?
 Maximum Force            0.000115     0.000450     YES
 RMS     Force            0.000045     0.000300     YES
 Maximum Displacement     0.000098     0.001800     YES
 RMS     Displacement     0.000029     0.001200     YES
 Predicted change in Energy=-8.641689D-09
 Optimization completed.
    -- Stationary point found.
                       ----------------------------
                       !   Optimized Parameters   !
                       ! (Angstroms and Degrees)  !
 ----------------------                            ----------------------
 !      Name          Value   Derivative information (Atomic Units)     !
 ------------------------------------------------------------------------
 !       B1          2.1378   -DE/DX =    0.0                           !
 !       B2          2.1592   -DE/DX =    0.0                           !
 !       B3          1.087    -DE/DX =    0.0                           !
 !       B4          2.0858   -DE/DX =    0.0                           !
 !       B5          2.139    -DE/DX =    0.0                           !
 !       B6          1.0465   -DE/DX =    0.0                           !
 !       B7          2.1272   -DE/DX =    0.0                           !
 !       B8          0.9678   -DE/DX =    0.0                           !
 !       B9          1.4857   -DE/DX =    0.0                           !
 !       B10         1.4758   -DE/DX =    0.0                           !
 !       B11         1.3867   -DE/DX =    0.0                           !
 !       A1        123.5922   -DE/DX =    0.0                           !
 !       A2         93.4623   -DE/DX =    0.0                           !
 !       A3         79.0652   -DE/DX =    0.0                           !
 !       A4        120.4381   -DE/DX =   -0.0001                        !
 !       A5        102.0296   -DE/DX =    0.0                           !
 !       A6         70.8776   -DE/DX =    0.0                           !
 !       A7         72.229    -DE/DX =    0.0001                        !
 !       A8        121.1519   -DE/DX =    0.0                           !
 !       A9         97.2496   -DE/DX =    0.0                           !
 !       A10       121.285    -DE/DX =    0.0001                        !
 !       A11        98.6406   -DE/DX =    0.0                           !
 !       D1         41.6447   -DE/DX =    0.0                           !
 !       D2         93.0197   -DE/DX =    0.0                           !
 !       D3         92.9755   -DE/DX =    0.0001                        !
 !       D4        144.0043   -DE/DX =   -0.0001                        !
 !       D5        145.8321   -DE/DX =   -0.0001                        !
 !       D6       -110.2603   -DE/DX =    0.0001                        !
 !       D7         45.7711   -DE/DX =    0.0001                        !
 !       D8        -75.4098   -DE/DX =   -0.0001                        !
 !       D9        104.6866   -DE/DX =    0.0                           !
 !       D10        67.2178   -DE/DX =    0.0                           !
 ------------------------------------------------------------------------
 GradGradGradGradGradGradGradGradGradGradGradGradGradGradGradGradGradGrad

 1\1\GINC-C24N11\Freq\RB3LYP\6-31++G(d,p)\C3H8O2\ROOT\27-Feb-2018\1\\#N
  Geom=AllCheck Guess=TCheck SCRF=Check GenChk RB3LYP/6-31++G(d,p) Freq
 \\OH-BACK-MID\\0,1\C\O,1,2.28584674\H,1,B1,2,A1\H,1,B2,2,A2,3,D1,0\H,1
 ,B3,2,A3,4,D2,0\H,1,B4,2,A4,5,D3,0\H,1,B5,2,A5,5,D4,0\H,2,B6,1,A6,5,D5
 ,0\H,1,B7,2,A7,8,D6,0\H,2,B8,1,A8,5,D7,0\C,1,B9,2,A9,10,D8,0\C,1,B10,1
 1,A10,2,D9,0\O,11,B11,1,A11,12,D10,0\\B1=2.1377596\B2=2.15924292\B3=1.
 08698994\B4=2.08582392\B5=2.13896063\B6=1.04648096\B7=2.1271592\B8=0.9
 6780415\B9=1.48567203\B10=1.47575689\B11=1.38670497\A1=123.59222477\A2
 =93.4623183\A3=79.06524397\A4=120.43813961\A5=102.02960922\A6=70.87764
 047\A7=72.22899896\A8=121.15191556\A9=97.24956358\A10=121.28504669\A11
 =98.64060652\D1=41.64465987\D2=93.01966196\D3=92.97545938\D4=144.00430
 217\D5=145.83208195\D6=-110.26029915\D7=45.77110447\D8=-75.40982945\D9
 =104.68658064\D10=67.21778386\\Version=EM64L-G09RevB.01\HF=-269.492860
 2\RMSD=3.314e-09\RMSF=3.160e-04\ZeroPoint=0.1064731\Thermal=0.1128284\
 Dipole=-1.243723,-0.6958221,-0.85542\DipoleDeriv=0.8147575,-0.0988341,
 -0.0162488,-0.0950216,0.465573,-0.2710837,-0.1266261,-0.153489,0.76034
 36,-0.6357778,-0.1169852,0.3947492,-0.1063588,-0.4244126,0.1169304,0.3
 316041,0.0164697,-1.1406936,0.0807595,0.0135438,0.070602,-0.0217633,0.
 0212914,0.0711312,0.1054779,0.0288768,-0.2267869,0.0485362,0.005382,0.
 0007207,0.0974398,-0.2928393,-0.0648611,0.0163453,-0.0073601,0.0165004
 ,0.0192288,-0.0408099,-0.0216399,-0.0179987,-0.02365,0.0118164,0.09312
 34,0.0455107,-0.0031356,0.0509707,-0.0391583,-0.0729462,0.0224439,0.04
 13895,0.0305325,-0.1118273,0.006875,-0.0012513,0.012831,-0.0846517,0.0
 409013,-0.0010877,0.0240732,0.0328747,0.0059715,0.02092,0.0785526,0.40
 42078,0.0922568,-0.4678779,0.0234921,0.2360974,-0.0519838,-0.1364347,-
 0.036783,0.6294593,0.1108972,-0.0219309,0.0688518,0.0740832,0.0560936,
 0.0350247,0.0536353,-0.0306839,0.0483008,0.2869762,0.0579942,-0.048447
 4,0.0364788,0.1778032,-0.0117046,0.0296721,0.0602192,0.2676276,0.09501
 67,0.0535331,0.1677433,-0.2577103,0.5011122,0.1913727,-0.305193,0.0995
 813,0.5638333,-0.2045527,0.2497774,-0.1250081,0.1978218,-0.1915381,0.0
 610357,0.049531,0.024724,-0.0584394,-1.0838509,-0.0701172,0.0085999,0.
 048181,-0.5909935,-0.1510851,-0.0052795,-0.0748608,-0.9343109\Polar=62
 .9735278,-4.0969398,48.8262081,0.4832481,-3.3911719,62.8277948\PG=C01 
 [X(C3H8O2)]\NImag=1\\0.53768334,0.03556110,0.57797065,-0.06734727,-0.0
 4864959,0.17995809,-0.01659357,-0.00819248,0.00002784,0.29709764,-0.00
 121362,-0.01308410,-0.01204962,0.02487328,0.43241499,-0.01398834,-0.01
 647322,0.01704391,-0.08539706,-0.24483927,0.20906216,-0.01675295,-0.01
 436730,0.02692392,0.00026036,0.00047963,-0.00140105,0.07822432,0.00292
 148,0.00164549,-0.00441828,0.00220562,0.00051730,0.00028942,0.02929122
 ,0.07795996,0.00419197,0.00176199,-0.00402304,0.00374528,0.00109036,-0
 .00120896,-0.07471024,-0.07092734,0.24583580,-0.01025518,0.03504386,-0
 .00654378,0.00029452,-0.00011366,-0.00065373,0.00475032,-0.01076709,0.
 00332623,0.05999793,-0.00201797,-0.00499958,0.00434473,0.00116957,0.00
 145358,-0.00137528,0.00303298,-0.01098337,0.00405986,-0.04272993,0.301
 37255,0.00279459,-0.00246943,0.00041003,-0.00017597,0.00055970,-0.0008
 5197,-0.00579263,0.02625556,-0.00294660,0.00623098,-0.01636474,0.05695
 422,-0.20050825,-0.14224122,0.03823875,-0.00008147,0.00154649,-0.00306
 787,-0.00498523,0.00080566,-0.00030922,0.00124672,0.00017847,-0.000799
 69,0.19742977,-0.13496321,-0.19937825,0.04053596,0.00027244,0.00162048
 ,-0.00063861,0.00102733,0.00039179,-0.00142179,-0.00058828,0.00027894,
 -0.00033554,0.14428325,0.20417389,0.04215351,0.03839472,-0.04677477,-0
 .00722676,-0.00327014,-0.01773653,-0.00139135,-0.00002304,-0.00232669,
 0.00009778,-0.00123957,-0.00070251,-0.04524285,-0.04890533,0.04082525,
 -0.01286040,0.00423432,-0.01079502,0.00027307,-0.00055780,0.00124459,-
 0.00028836,-0.00017607,0.00045903,-0.00009803,0.00006119,0.00019398,0.
 00061575,0.00032259,0.00020066,0.16027191,0.01683493,0.00269105,0.0208
 6074,-0.00009987,-0.00152337,0.00102321,0.00039987,-0.00036669,-0.0002
 1907,-0.00032676,-0.00011916,-0.00009266,-0.00141591,0.00070242,-0.000
 91999,0.00590020,0.04639989,-0.00306128,-0.00153698,-0.00575341,0.0005
 6524,0.00147932,0.00009053,0.00034648,-0.00001564,0.00013037,-0.000094
 66,0.00008363,-0.00001300,0.00056833,0.00075329,0.00143405,0.13942861,
 0.00610829,0.20175784,0.01271137,0.00827435,-0.00313888,0.00006395,-0.
 00003631,0.00037588,0.00046924,-0.00034398,0.00034611,0.00019396,-0.00
 029573,0.00004316,-0.00020274,0.00319357,0.00042074,-0.01198136,-0.009
 79322,0.00523849,0.21700199,-0.02576383,-0.02369946,0.00710022,0.00035
 794,0.00045149,0.00001090,0.00065923,0.00002351,-0.00067918,-0.0002655
 6,0.00028887,-0.00044028,0.00296978,-0.00423829,0.00080739,0.00159602,
 0.00028216,-0.00099893,0.14081655,0.17434634,0.00376094,0.00370573,-0.
 00259551,-0.00010045,0.00035448,0.00042088,0.00019141,0.00012646,-0.00
 033549,0.00006887,-0.00010621,-0.00019732,0.00058695,0.00140290,0.0031
 9478,-0.01693277,-0.01628948,0.00601554,-0.04818829,-0.03953606,0.0580
 6653,0.01863152,0.00631389,-0.02753466,-0.20449873,-0.03727817,0.07565
 608,-0.00055981,-0.00316243,-0.00635879,-0.00020455,-0.00163824,0.0000
 3534,0.00153052,0.00112026,0.00707296,-0.00056321,-0.00034400,-0.00011
 893,0.00003297,-0.00038245,-0.00021003,0.18052693,0.00257493,0.0059335
 0,-0.00893934,0.00259315,-0.04783413,0.02256220,-0.00037371,-0.0011736
 4,-0.00120544,0.00012754,-0.00073764,-0.00072333,0.00041076,0.00022075
 ,0.00206066,-0.00018362,-0.00026648,-0.00031135,-0.00004165,-0.0001950
 1,0.00040709,0.02379583,0.07013290,-0.01891749,-0.00679386,-0.00121817
 ,0.01983092,0.01857648,-0.04800304,-0.00102282,0.00073568,0.00269393,0
 .00050290,0.00107466,0.00027060,-0.00101883,-0.00048528,-0.00554441,0.
 00025436,-0.00008987,0.00028056,-0.00005315,0.00030600,0.00002938,-0.0
 0011569,-0.00972150,0.04834508,-0.01257797,0.00873968,0.00556483,0.000
 03412,-0.00133112,0.00098846,0.00046858,-0.00020890,-0.00034414,-0.000
 91526,-0.00004434,-0.00044260,0.00040896,-0.00004599,-0.00053842,0.010
 17573,-0.00834704,-0.01743837,-0.01091856,0.00883407,0.01748152,-0.000
 82813,0.00052474,0.00017470,0.12175973,0.01928897,-0.01052575,-0.02538
 995,-0.00135465,0.00028636,0.00030624,-0.00054008,0.00042402,-0.000370
 54,0.00157153,-0.00033653,-0.00019674,0.00006119,0.00091229,0.00151352
 ,0.00006302,-0.00019481,-0.00086639,-0.00972876,0.00801538,0.01675719,
 0.00190683,0.00039642,-0.00104368,-0.04893293,0.07855085,-0.00536285,0
 .00118022,0.00675192,0.00050760,0.00162407,-0.00114047,0.00012794,-0.0
 0010677,0.00000219,-0.00048700,0.00021450,0.00010316,0.00017616,-0.000
 40179,0.00022288,0.01176501,-0.00866883,-0.02004733,0.00100312,-0.0011
 1984,-0.00329649,-0.00090262,0.00001976,0.00043438,-0.12146503,0.07602
 669,0.23078532,-0.00064079,0.00131148,0.00363952,-0.03703623,0.0264140
 1,-0.01483140,0.00003098,0.00004100,0.00008993,-0.00000363,0.00005802,
 0.00020815,-0.00004017,-0.00011794,-0.00120298,0.00022026,0.00029815,-
 0.00049984,0.00000338,-0.00004771,-0.00009478,0.01140819,-0.03052267,0
 .01311146,0.00050263,-0.00022096,-0.00041179,0.03225680,-0.00150001,-0
 .00052380,0.00913170,-0.00908023,-0.38117635,0.22325099,0.00002119,-0.
 00003683,0.00005991,-0.00002346,-0.00045677,-0.00004364,-0.00072348,-0
 .00036301,-0.00165589,0.00013320,0.00056912,-0.00013127,0.00000219,0.0
 0000900,0.00000639,0.00918467,-0.00654866,0.00078899,-0.00006211,0.000
 24705,-0.00049557,0.00074889,0.38543070,-0.00057860,0.00341321,0.00562
 054,0.00444311,0.21840021,-0.14534305,-0.00030603,-0.00008371,0.000011
 10,0.00010830,-0.00066684,-0.00052679,-0.00140481,-0.00019674,-0.00184
 889,0.00029459,0.00054754,-0.00028727,0.00003560,-0.00020148,0.0000132
 4,-0.00238120,0.00937275,-0.00597288,0.00025819,-0.00022215,-0.0005419
 7,-0.00300288,-0.23056350,0.14877117,-0.19044290,0.04458326,0.05504866
 ,-0.01267786,-0.00336833,0.00722754,-0.07800804,-0.02355075,0.06858579
 ,-0.05736152,0.04637772,-0.00406763,-0.00634432,0.00358673,-0.00956218
 ,-0.00072110,0.00308846,0.00035823,-0.00033303,-0.00165247,0.00082857,
 0.01219048,0.00615425,-0.00544545,0.00133243,-0.00336292,0.00030020,-0
 .00047437,0.00019122,0.00027189,0.42021509,0.07152209,-0.09722323,0.00
 635455,-0.00582749,-0.00253281,0.00923533,-0.02175604,-0.07648555,0.07
 740842,0.03549153,-0.26611809,0.02630600,-0.01594371,0.01023150,0.0114
 3179,0.00040319,0.00056791,0.00001413,0.00056790,0.00094026,-0.0002129
 2,0.00456025,0.00137176,-0.00372281,0.00422988,-0.00567917,0.00175554,
 -0.00049101,0.00153041,0.00116155,-0.04927065,0.55874043,0.07800355,0.
 00989196,-0.04410420,0.00445286,-0.00171892,0.01370693,0.07939161,0.07
 250551,-0.19834567,-0.00570184,0.03019787,-0.05106141,0.01568635,0.002
 33140,0.01928437,-0.00044312,0.00035107,-0.00265722,-0.00189492,0.0001
 2300,-0.00072028,-0.01305129,-0.00919493,-0.00370549,0.00148194,0.0011
 8584,-0.00149925,0.00013326,0.00086813,0.00234520,-0.05966391,-0.04051
 665,0.43645980,-0.09345725,0.03181320,0.00512862,0.00194057,0.00524126
 ,-0.00463086,0.00074347,0.00107094,-0.00034157,-0.00364164,0.00101977,
 0.00026512,0.01072608,-0.02134564,0.00373828,-0.14561699,-0.00657402,-
 0.12449187,-0.20594673,-0.12749544,0.04384459,-0.00066700,0.00030686,0
 .00093424,-0.11094845,0.04123894,0.11498373,-0.00131698,-0.00126725,-0
 .00191334,-0.00900854,0.02317870,-0.00653733,0.56073589,0.04171070,-0.
 23488239,0.02166405,0.00006452,-0.00137500,0.00357969,-0.00121185,0.00
 115634,0.00056387,-0.00028826,0.00079618,0.00023996,0.01074746,-0.0155
 0352,0.00271376,-0.01450160,-0.04755040,-0.00458969,-0.13320737,-0.157
 84303,0.03545558,0.00022389,-0.00070121,0.00038373,0.03792309,-0.07380
 600,-0.06951269,0.00068969,0.00089254,0.00030941,0.00668238,-0.0052264
 7,0.00415458,0.04981054,0.53367816,0.00885559,0.02502145,-0.06736428,-
 0.00064185,0.00629039,-0.00521216,-0.00273449,0.00042768,0.00147054,0.
 00480812,-0.00087559,0.00146600,-0.00069732,0.00602197,0.00350805,-0.1
 2563581,-0.00043671,-0.18157727,0.04555351,0.03496177,-0.06007659,0.00
 147717,0.00092601,-0.00068843,0.11504743,-0.07033929,-0.21108137,-0.00
 104196,-0.00129186,-0.00159853,-0.00948585,-0.01827581,0.00512070,-0.0
 3219185,0.00471003,0.50948805,-0.01493695,-0.01107414,-0.01921252,-0.0
 2907637,-0.01465567,0.03847776,0.01564712,0.00187330,0.00131962,0.0059
 9636,-0.00517151,0.00150721,0.00020438,0.00325487,0.01148060,0.0005727
 3,0.00037919,-0.00080042,-0.00109445,0.00037388,-0.00123654,-0.0169991
 9,-0.00536640,-0.00823513,0.00150619,0.00000982,-0.00023447,-0.0049100
 8,0.00237518,0.00417518,-0.07836631,-0.04666465,-0.09185715,-0.0035424
 3,0.00135680,-0.00331270,0.12499903,-0.02495557,-0.00392413,-0.0105451
 8,-0.00698182,0.01078156,0.00306841,0.00333752,0.00692768,-0.01012106,
 -0.01713146,-0.02043901,-0.03269486,-0.00067874,0.00095102,-0.00090787
 ,0.00270536,-0.00119163,0.00001159,0.00059247,0.00161876,-0.00207114,-
 0.00430033,-0.02059857,-0.00000853,-0.00127904,0.00170988,-0.00051529,
 0.00183905,0.00042660,-0.00127025,-0.02945891,-0.12011695,-0.07017889,
 0.00300214,0.00036479,0.01285996,0.07330933,0.14349001,-0.03050431,-0.
 00744622,-0.03795111,0.05996926,0.01350295,-0.02082821,-0.01962275,-0.
 02476553,-0.04095748,-0.00166217,-0.01934701,-0.00290442,-0.00271594,0
 .00133955,0.00646443,-0.00003411,-0.00217424,0.00062662,0.00025862,-0.
 00033351,-0.00051867,-0.03356835,-0.00525258,0.01307850,-0.00076851,0.
 00263927,-0.00069295,0.00390331,0.00007561,-0.00064187,-0.04439585,-0.
 07093911,-0.17482348,0.00121222,0.00032771,0.00654528,0.06792857,0.112
 37311,0.25260336\\0.00030827,0.00020672,-0.00134611,-0.00030808,-0.000
 18506,0.00134554,-0.00000012,-0.00001978,-0.00000063,0.00000018,0.0000
 0026,0.00000014,-0.00000056,0.00000051,-0.00000007,-0.00003098,-0.0000
 1072,-0.00003453,0.00002626,0.00001135,-0.00000398,-0.00000055,0.00000
 038,0.00000035,-0.00002125,0.00000487,0.00003496,0.,-0.00000016,-0.000
 00021,-0.00000039,-0.00000104,0.00000066,0.00002790,-0.00000740,0.0000
 0421,-0.00000070,0.00000009,-0.00000033\\\@


 THE UNDERLYING PHYSICAL LAWS NECESSARY FOR THE 
 MATHEMATICAL THEORY OF A LARGE PART OF PHYSICS AND THE
 WHOLE OF CHEMISTRY ARE THUS COMPLETELY KNOWN, AND THE
 DIFFICULTY IS ONLY THAT THE EXACT APPLICATION OF THESE
 LAWS LEADS TO EQUATIONS MUCH TOO COMPLICATED 
 TO BE SOLUBLE.

                                        -- P. A. M. DIRAC, 1929
 Job cpu time:  0 days  0 hours  7 minutes 54.7 seconds.
 File lengths (MBytes):  RWF=   1280 Int=      0 D2E=      0 Chk=     32 Scr=     32
 Normal termination of Gaussian 09 at Tue Feb 27 15:39:39 2018.
