 Entering Gaussian System, Link 0=g09
 Input=H2O-term-z-10.gjf
 Output=H2O-term-z-10.log
 Initial command:
 /share/home/zxchen/g09/l1.exe /scratch/zxchen/Gau-22071.inp -scrdir=/scratch/zxchen/
 Entering Link 1 = /share/home/zxchen/g09/l1.exe PID=     22072.
  
 Copyright (c) 1988,1990,1992,1993,1995,1998,2003,2009,2010,
            Gaussian, Inc.  All Rights Reserved.
  
 This is part of the Gaussian(R) 09 program.  It is based on
 the Gaussian(R) 03 system (copyright 2003, Gaussian, Inc.),
 the Gaussian(R) 98 system (copyright 1998, Gaussian, Inc.),
 the Gaussian(R) 94 system (copyright 1995, Gaussian, Inc.),
 the Gaussian 92(TM) system (copyright 1992, Gaussian, Inc.),
 the Gaussian 90(TM) system (copyright 1990, Gaussian, Inc.),
 the Gaussian 88(TM) system (copyright 1988, Gaussian, Inc.),
 the Gaussian 86(TM) system (copyright 1986, Carnegie Mellon
 University), and the Gaussian 82(TM) system (copyright 1983,
 Carnegie Mellon University). Gaussian is a federally registered
 trademark of Gaussian, Inc.
  
 This software contains proprietary and confidential information,
 including trade secrets, belonging to Gaussian, Inc.
  
 This software is provided under written license and may be
 used, copied, transmitted, or stored only in accord with that
 written license.
  
 The following legend is applicable only to US Government
 contracts under FAR:
  
                    RESTRICTED RIGHTS LEGEND
  
 Use, reproduction and disclosure by the US Government is
 subject to restrictions as set forth in subparagraphs (a)
 and (c) of the Commercial Computer Software - Restricted
 Rights clause in FAR 52.227-19.
  
 Gaussian, Inc.
 340 Quinnipiac St., Bldg. 40, Wallingford CT 06492
  
  
 ---------------------------------------------------------------
 Warning -- This program may not be used in any manner that
 competes with the business of Gaussian, Inc. or will provide
 assistance to any competitor of Gaussian, Inc.  The licensee
 of this program is prohibited from giving any competitor of
 Gaussian, Inc. access to this program.  By using this program,
 the user acknowledges that Gaussian, Inc. is engaged in the
 business of creating and licensing software in the field of
 computational chemistry and represents and warrants to the
 licensee that it is not a competitor of Gaussian, Inc. and that
 it will not use this program in any manner prohibited above.
 ---------------------------------------------------------------
  

 Cite this work as:
 Gaussian 09, Revision B.01,
 M. J. Frisch, G. W. Trucks, H. B. Schlegel, G. E. Scuseria, 
 M. A. Robb, J. R. Cheeseman, G. Scalmani, V. Barone, B. Mennucci, 
 G. A. Petersson, H. Nakatsuji, M. Caricato, X. Li, H. P. Hratchian, 
 A. F. Izmaylov, J. Bloino, G. Zheng, J. L. Sonnenberg, M. Hada, 
 M. Ehara, K. Toyota, R. Fukuda, J. Hasegawa, M. Ishida, T. Nakajima, 
 Y. Honda, O. Kitao, H. Nakai, T. Vreven, J. A. Montgomery, Jr., 
 J. E. Peralta, F. Ogliaro, M. Bearpark, J. J. Heyd, E. Brothers, 
 K. N. Kudin, V. N. Staroverov, T. Keith, R. Kobayashi, J. Normand, 
 K. Raghavachari, A. Rendell, J. C. Burant, S. S. Iyengar, J. Tomasi, 
 M. Cossi, N. Rega, J. M. Millam, M. Klene, J. E. Knox, J. B. Cross, 
 V. Bakken, C. Adamo, J. Jaramillo, R. Gomperts, R. E. Stratmann, 
 O. Yazyev, A. J. Austin, R. Cammi, C. Pomelli, J. W. Ochterski, 
 R. L. Martin, K. Morokuma, V. G. Zakrzewski, G. A. Voth, 
 P. Salvador, J. J. Dannenberg, S. Dapprich, A. D. Daniels, 
 O. Farkas, J. B. Foresman, J. V. Ortiz, J. Cioslowski, 
 and D. J. Fox, Gaussian, Inc., Wallingford CT, 2010.
 
 ******************************************
 Gaussian 09:  EM64L-G09RevB.01 12-Aug-2010
                27-Feb-2018 
 ******************************************
 %chk=ts\H2O-term-field.chk
 %nprocshared=24
 Will use up to   24 processors via shared memory.
 ----------------------------------------------------------------------
 # field=z-10 freq opt=(z-matrix,ts,calcfc,noeigen) nosymm rb3lyp/6-31+
 +g(d,p)
 ----------------------------------------------------------------------
 1/5=1,10=4,11=1,14=-1,18=40,26=3,38=1/1,3;
 2/12=2,15=1,17=6,18=5,29=3,40=1/2;
 3/5=1,6=6,7=1111,11=2,14=3,15=-10,16=1,25=1,30=1,71=2,74=-5,116=1/1,2,3;
 4//1;
 5/5=2,38=5/2;
 8/6=4,10=90,11=11/1;
 11/6=1,8=1,9=11,15=111,16=1,31=1/1,2,10;
 10/6=1,7=6,13=1,31=1/2;
 6/7=2,8=2,9=2,10=2,28=1/1;
 7/10=1,18=20,25=1,30=1/1,2,3,16;
 1/5=1,10=4,11=1,14=-1,18=40/3(2);
 2/15=1,29=3/2;
 99//99;
 2/15=1,29=3/2;
 3/5=1,6=6,7=1111,11=2,14=3,15=-10,16=1,25=1,30=1,71=1,74=-5,116=1/1,2,3;
 4/5=5,16=3/1;
 5/5=2,38=5/2;
 7/30=1/1,2,3,16;
 1/5=1,11=1,14=-1,18=40/3(-5);
 2/15=1,29=3/2;
 6/7=2,8=2,9=2,10=2,19=2,28=1/1;
 99/9=1/99;
 ------------
 OH-BACK-TERM
 ------------
 Symbolic Z-matrix:
 Charge =  0 Multiplicity = 1
 C
 O                    1     2.20329 
 H                    2    B1       1    A1
 H                    2    B2       1    A2       3    D1       0
 H                    1    B3       2    A3       3    D2       0
 H                    1    B4       2    A4       3    D3       0
 H                    1    B5       2    A5       3    D4       0
 H                    1    B6       2    A6       3    D5       0
 H                    1    B7       2    A7       3    D6       0
 H                    1    B8       2    A8       3    D7       0
 C                    1    B9       2    A9       3    D8       0
 C                    1    B10      2    A10      11   D9       0
 O                    12   B11      1    A11      2    D10      0
       Variables:
  B1                    0.96                     
  B2                    1.04473                  
  B3                    1.07                     
  B4                    1.07                     
  B5                    2.76608                  
  B6                    2.88703                  
  B7                    3.43834                  
  B8                    2.09921                  
  B9                    2.54685                  
  B10                   1.47699                  
  B11                   1.43                     
  A1                  109.94163                  
  A2                   71.37976                  
  A3                   98.99694                  
  A4                   76.87242                  
  A5                   76.16809                  
  A6                  111.81475                  
  A7                   95.76582                  
  A8                  126.38247                  
  A9                   95.91841                  
  A10                 101.64969                  
  A11                  94.21089                  
  D1                 -101.99684                  
  D2                    6.47843                  
  D3                 -109.92239                  
  D4                  170.80164                  
  D5                  174.47812                  
  D6                  147.87599                  
  D7                  110.88798                  
  D8                  159.41149                  
  D9                  -32.54484                  
  D10                 -37.76004                  
 

 GradGradGradGradGradGradGradGradGradGradGradGradGradGradGradGradGradGrad
 Berny optimization.
 Initialization pass.
                       ----------------------------
                       !    Initial Parameters    !
                       ! (Angstroms and Degrees)  !
 ----------------------                            ----------------------
 !      Name          Value   Derivative information (Atomic Units)     !
 ------------------------------------------------------------------------
 !       B1          0.96     calculate D2E/DX2 analytically            !
 !       B2          1.0447   calculate D2E/DX2 analytically            !
 !       B3          1.07     calculate D2E/DX2 analytically            !
 !       B4          1.07     calculate D2E/DX2 analytically            !
 !       B5          2.7661   calculate D2E/DX2 analytically            !
 !       B6          2.887    calculate D2E/DX2 analytically            !
 !       B7          3.4383   calculate D2E/DX2 analytically            !
 !       B8          2.0992   calculate D2E/DX2 analytically            !
 !       B9          2.5469   calculate D2E/DX2 analytically            !
 !       B10         1.477    calculate D2E/DX2 analytically            !
 !       B11         1.43     calculate D2E/DX2 analytically            !
 !       A1        109.9416   calculate D2E/DX2 analytically            !
 !       A2         71.3798   calculate D2E/DX2 analytically            !
 !       A3         98.9969   calculate D2E/DX2 analytically            !
 !       A4         76.8724   calculate D2E/DX2 analytically            !
 !       A5         76.1681   calculate D2E/DX2 analytically            !
 !       A6        111.8147   calculate D2E/DX2 analytically            !
 !       A7         95.7658   calculate D2E/DX2 analytically            !
 !       A8        126.3825   calculate D2E/DX2 analytically            !
 !       A9         95.9184   calculate D2E/DX2 analytically            !
 !       A10       101.6497   calculate D2E/DX2 analytically            !
 !       A11        94.2109   calculate D2E/DX2 analytically            !
 !       D1       -101.9968   calculate D2E/DX2 analytically            !
 !       D2          6.4784   calculate D2E/DX2 analytically            !
 !       D3       -109.9224   calculate D2E/DX2 analytically            !
 !       D4        170.8016   calculate D2E/DX2 analytically            !
 !       D5        174.4781   calculate D2E/DX2 analytically            !
 !       D6        147.876    calculate D2E/DX2 analytically            !
 !       D7        110.888    calculate D2E/DX2 analytically            !
 !       D8        159.4115   calculate D2E/DX2 analytically            !
 !       D9        -32.5448   calculate D2E/DX2 analytically            !
 !       D10       -37.76     calculate D2E/DX2 analytically            !
 ------------------------------------------------------------------------
 Trust Radius=3.00D-01 FncErr=1.00D-07 GrdErr=1.00D-06
 Number of steps in this run=     42 maximum allowed number of steps=    100.
 Search for a saddle point of order  1.
 GradGradGradGradGradGradGradGradGradGradGradGradGradGradGradGradGradGrad

 ---------------------------------------------------------------------------------------------------
                            Z-MATRIX (ANGSTROMS AND DEGREES)
   CD    Cent   Atom    N1       Length/X        N2       Alpha/Y        N3        Beta/Z          J
 ---------------------------------------------------------------------------------------------------
      1      1  C 
      2      2  O        1   2.203291(     1)
      3      3  H        2   0.960000(     2)      1  109.942(    13)
      4      4  H        2   1.044733(     3)      1   71.380(    14)      3 -101.997(    24)      0
      5      5  H        1   1.070000(     4)      2   98.997(    15)      3    6.478(    25)      0
      6      6  H        1   1.070000(     5)      2   76.872(    16)      3 -109.922(    26)      0
      7      7  H        1   2.766076(     6)      2   76.168(    17)      3  170.802(    27)      0
      8      8  H        1   2.887029(     7)      2  111.815(    18)      3  174.478(    28)      0
      9      9  H        1   3.438336(     8)      2   95.766(    19)      3  147.876(    29)      0
     10     10  H        1   2.099214(     9)      2  126.382(    20)      3  110.888(    30)      0
     11     11  C        1   2.546853(    10)      2   95.918(    21)      3  159.411(    31)      0
     12     12  C        1   1.476987(    11)      2  101.650(    22)     11  -32.545(    32)      0
     13     13  O       12   1.430000(    12)      1   94.211(    23)      2  -37.760(    33)      0
 ---------------------------------------------------------------------------------------------------
                         Z-Matrix orientation:                         
 ---------------------------------------------------------------------
 Center     Atomic      Atomic             Coordinates (Angstroms)
 Number     Number       Type             X           Y           Z
 ---------------------------------------------------------------------
      1          6           0        0.000000    0.000000    0.000000
      2          8           0        0.000000    0.000000    2.203291
      3          1           0        0.902439    0.000000    2.530711
      4          1           0       -0.205789   -0.968423    1.869714
      5          1           0        1.050087   -0.119242   -0.167328
      6          1           0       -0.355071    0.979677    0.243019
      7          1           0       -2.651325   -0.429343    0.661298
      8          1           0       -2.667852   -0.257913   -1.072840
      9          1           0       -2.897191   -1.819097   -0.345425
     10          1           0       -0.602565   -1.578956   -1.245196
     11          6           0       -2.371478   -0.890837   -0.262612
     12          6           0       -0.867872   -1.157299   -0.298244
     13          8           0       -0.367488   -1.945660    0.784808
 ---------------------------------------------------------------------
                    Distance matrix (angstroms):
                    1          2          3          4          5
     1  C    0.000000
     2  O    2.203291   0.000000
     3  H    2.686800   0.960000   0.000000
     4  H    2.115661   1.044733   1.613360   0.000000
     5  H    1.070000   2.595522   2.704706   2.539266   0.000000
     6  H    1.070000   2.220024   2.788303   2.542344   1.830431
     7  H    2.766076   3.097032   4.038351   2.780562   3.805685
     8  H    2.887029   4.232846   5.079279   3.901948   3.829132
     9  H    3.438336   4.266003   5.100830   3.588054   4.301422
    10  H    2.099214   3.840345   4.360689   3.198882   2.454348
    11  C    2.546853   3.535275   4.394857   3.040236   3.508781
    12  C    1.476987   2.889674   3.532184   2.274658   2.184781
    13  O    2.129921   2.435720   2.906283   1.469067   2.500377
                    6          7          8          9         10
     6  H    0.000000
     7  H    2.726367   0.000000
     8  H    2.934632   1.742669   0.000000
     9  H    3.826457   1.733596   1.737534   0.000000
    10  H    2.970292   3.025516   2.457696   2.476402   0.000000
    11  C    2.796494   1.070000   1.070000   1.070000   2.137295
    12  C    2.263315   2.152056   2.156113   2.135027   1.070000
    13  O    2.975111   2.744155   3.404559   2.773598   2.076211
                   11         12         13
    11  C    0.000000
    12  C    1.527449   0.000000
    13  O    2.495138   1.430000   0.000000
 Symmetry turned off by external request.
 Stoichiometry    C3H8O2
 Framework group  C1[X(C3H8O2)]
 Deg. of freedom    33
 Full point group                 C1      NOp   1
 Rotational constants (GHZ):      7.0600530      3.2958543      3.1474056
 Standard basis: 6-31++G(d,p) (6D, 7F)
 The following finite field(s) will be applied:
 An electric field of              0.0000  0.0000 -0.0010
 Integral buffers will be    131072 words long.
 Raffenetti 2 integral format.
 Two-electron integral symmetry is turned off.
   143 basis functions,   224 primitive gaussians,   143 cartesian basis functions
    21 alpha electrons       21 beta electrons
       nuclear repulsion energy       189.7847448441 Hartrees.
 NAtoms=   13 NActive=   13 NUniq=   13 SFac= 1.00D+00 NAtFMM=   50 NAOKFM=F Big=F
 One-electron integrals computed using PRISM.
 PrsmSu:  requested number of processors reduced to:  10 ShMem   1 Linda.
 NBasis=   143 RedAO= T  NBF=   143
 NBsUse=   143 1.00D-06 NBFU=   143
 The nuclear repulsion energy is now       189.7412554271 hartrees.
 Harris functional with IExCor=  402 diagonalized for initial guess.
 ExpMin= 3.60D-02 ExpMax= 5.48D+03 ExpMxC= 8.25D+02 IAcc=3 IRadAn=         0 AccDes= 0.00D+00
 HarFok:  IExCor=  402 AccDes= 0.00D+00 IRadAn=         0 IDoV= 1
 ScaDFX=  1.000000  1.000000  1.000000  1.000000
 FoFCou: FMM=F IPFlag=           0 FMFlag=      100000 FMFlg1=           0
         NFxFlg=           0 DoJE=T BraDBF=F KetDBF=T FulRan=T
         Omega=  0.000000  0.000000  1.000000  0.000000  0.000000 ICntrl=     500 IOpCl=  0
         NMat0=    1 NMatS0=    1 NMatT0=    0 NMatD0=    1 NMtDS0=    0 NMtDT0=    0
         I1Cent=           4 NGrid=           0.
 Symmetry not used in FoFCou.
 Requested convergence on RMS density matrix=1.00D-08 within 128 cycles.
 Requested convergence on MAX density matrix=1.00D-06.
 Requested convergence on             energy=1.00D-06.
 No special actions if energy rises.
 EnCoef did     2 forward-backward iterations
 EnCoef did     2 forward-backward iterations
 SCF Done:  E(RB3LYP) =  -269.484336896     A.U. after   15 cycles
             Convg  =    0.6906D-08             -V/T =  2.0089
 Range of M.O.s used for correlation:     1   143
 NBasis=   143 NAE=    21 NBE=    21 NFC=     0 NFV=     0
 NROrb=    143 NOA=    21 NOB=    21 NVA=   122 NVB=   122

 **** Warning!!: The largest alpha MO coefficient is  0.39444124D+02

 PrsmSu:  requested number of processors reduced to:  10 ShMem   1 Linda.
 PrsmSu:  requested number of processors reduced to:  17 ShMem   1 Linda.
 Symmetrizing basis deriv contribution to polar:
 IMax=3 JMax=2 DiffMx= 0.00D+00
 G2DrvN: will do     3 centers at a time, making    5 passes doing MaxLOS=2.
 Estimated number of processors is:   15
 Calling FoFCou, ICntrl=  3107 FMM=F I1Cent=   0 AccDes= 0.00D+00.
 CoulSu:  requested number of processors reduced to:  15 ShMem   1 Linda.
 Calling FoFCou, ICntrl=  3107 FMM=F I1Cent=   0 AccDes= 0.00D+00.
 CoulSu:  requested number of processors reduced to:  15 ShMem   1 Linda.
 Calling FoFCou, ICntrl=  3107 FMM=F I1Cent=   0 AccDes= 0.00D+00.
 CoulSu:  requested number of processors reduced to:  15 ShMem   1 Linda.
 Calling FoFCou, ICntrl=  3107 FMM=F I1Cent=   0 AccDes= 0.00D+00.
 CoulSu:  requested number of processors reduced to:  15 ShMem   1 Linda.
 Calling FoFCou, ICntrl=  3107 FMM=F I1Cent=   0 AccDes= 0.00D+00.
 CoulSu:  requested number of processors reduced to:  15 ShMem   1 Linda.
 FoFDir/FoFCou used for L=0 through L=2.
 End of G2Drv Frequency-dependent properties file   721 does not exist.
 End of G2Drv Frequency-dependent properties file   722 does not exist.
          IDoAtm=1111111111111
          Differentiating once with respect to nuclear coordinates.
 PrRfSu:  requested number of processors reduced to:  16 ShMem   1 Linda.
 CalDSu:  requested number of processors reduced to:  22 ShMem   1 Linda.
 PrRfSu:  requested number of processors reduced to:  16 ShMem   1 Linda.
 CalDSu:  requested number of processors reduced to:  22 ShMem   1 Linda.
          There are    42 degrees of freedom in the 1st order CPHF.  IDoFFX=5.
     36 vectors produced by pass  0 Test12= 6.10D-11 2.38D-07 XBig12= 1.46D-01 2.99D-01.
 AX will form    36 AO Fock derivatives at one time.
 PrRfSu:  requested number of processors reduced to:  15 ShMem   1 Linda.
 CalDSu:  requested number of processors reduced to:  19 ShMem   1 Linda.
     36 vectors produced by pass  1 Test12= 6.10D-11 2.38D-07 XBig12= 6.87D-02 6.42D-02.
 PrRfSu:  requested number of processors reduced to:  15 ShMem   1 Linda.
 CalDSu:  requested number of processors reduced to:  19 ShMem   1 Linda.
     36 vectors produced by pass  2 Test12= 6.10D-11 2.38D-07 XBig12= 2.49D-04 1.89D-03.
 PrRfSu:  requested number of processors reduced to:  15 ShMem   1 Linda.
 CalDSu:  requested number of processors reduced to:  19 ShMem   1 Linda.
     36 vectors produced by pass  3 Test12= 6.10D-11 2.38D-07 XBig12= 7.32D-07 1.11D-04.
 PrRfSu:  requested number of processors reduced to:  15 ShMem   1 Linda.
 CalDSu:  requested number of processors reduced to:  19 ShMem   1 Linda.
     17 vectors produced by pass  4 Test12= 6.10D-11 2.38D-07 XBig12= 1.32D-09 5.19D-06.
 PrRfSu:  requested number of processors reduced to:  17 ShMem   1 Linda.
 CalDSu:  requested number of processors reduced to:  23 ShMem   1 Linda.
 Inverted reduced A of dimension   161 with in-core refinement.
 End of Minotr Frequency-dependent properties file   721 does not exist.
 End of Minotr Frequency-dependent properties file   722 does not exist.

 **********************************************************************

            Population analysis using the SCF density.

 **********************************************************************

 Alpha  occ. eigenvalues --  -19.16458 -19.11273 -10.28880 -10.24788 -10.17779
 Alpha  occ. eigenvalues --   -1.01568  -0.95627  -0.77122  -0.71619  -0.59845
 Alpha  occ. eigenvalues --   -0.53390  -0.49839  -0.47402  -0.44043  -0.40714
 Alpha  occ. eigenvalues --   -0.39063  -0.37960  -0.35610  -0.33466  -0.24577
 Alpha  occ. eigenvalues --   -0.24252
 Alpha virt. eigenvalues --   -0.11322  -0.01542   0.00201   0.01306   0.02481
 Alpha virt. eigenvalues --    0.03749   0.04318   0.05378   0.06517   0.07353
 Alpha virt. eigenvalues --    0.09042   0.09752   0.10980   0.12063   0.12701
 Alpha virt. eigenvalues --    0.13278   0.14133   0.15158   0.15902   0.16733
 Alpha virt. eigenvalues --    0.17343   0.19291   0.19996   0.20424   0.20680
 Alpha virt. eigenvalues --    0.22603   0.24080   0.25831   0.26457   0.27017
 Alpha virt. eigenvalues --    0.28059   0.31014   0.31371   0.33158   0.33839
 Alpha virt. eigenvalues --    0.36626   0.38122   0.39357   0.41192   0.45478
 Alpha virt. eigenvalues --    0.64017   0.65565   0.70015   0.71968   0.75167
 Alpha virt. eigenvalues --    0.75896   0.77173   0.78750   0.86950   0.93273
 Alpha virt. eigenvalues --    0.96601   0.97299   0.98881   1.00578   1.04387
 Alpha virt. eigenvalues --    1.07060   1.13202   1.15691   1.16810   1.18023
 Alpha virt. eigenvalues --    1.20922   1.23242   1.29736   1.33095   1.35482
 Alpha virt. eigenvalues --    1.42221   1.43421   1.47563   1.52748   1.55503
 Alpha virt. eigenvalues --    1.61406   1.63570   1.68974   1.73226   1.78298
 Alpha virt. eigenvalues --    1.78771   1.82483   1.83946   1.88324   1.91141
 Alpha virt. eigenvalues --    2.00386   2.03756   2.04688   2.09943   2.13513
 Alpha virt. eigenvalues --    2.14623   2.17533   2.23573   2.27328   2.31270
 Alpha virt. eigenvalues --    2.35542   2.37337   2.39556   2.41248   2.46199
 Alpha virt. eigenvalues --    2.55148   2.55990   2.60519   2.67089   2.67697
 Alpha virt. eigenvalues --    2.74039   2.76318   2.81802   2.85449   2.87765
 Alpha virt. eigenvalues --    2.95578   3.02185   3.06876   3.09579   3.31901
 Alpha virt. eigenvalues --    3.36579   3.40656   3.43896   3.49243   3.52325
 Alpha virt. eigenvalues --    3.54897   3.73215   4.21072   4.34295   4.42067
 Alpha virt. eigenvalues --    4.50833   4.68227
          Condensed to atoms (all electrons):
              1          2          3          4          5          6
     1  C    5.690322   0.013644   0.005733   0.030085   0.357487   0.401795
     2  O    0.013644   8.438994   0.244033   0.137569  -0.006051  -0.058810
     3  H    0.005733   0.244033   0.398367  -0.009102  -0.006456   0.003932
     4  H    0.030085   0.137569  -0.009102   0.337214  -0.004004   0.008510
     5  H    0.357487  -0.006051  -0.006456  -0.004004   0.577037  -0.059246
     6  H    0.401795  -0.058810   0.003932   0.008510  -0.059246   0.528051
     7  H   -0.014855   0.006692  -0.000648   0.002652  -0.001809   0.005113
     8  H    0.000981  -0.000309   0.000078   0.001056   0.001000  -0.004568
     9  H    0.004093   0.001834  -0.000047  -0.002468  -0.002842   0.001566
    10  H   -0.066224  -0.008952   0.001510   0.012420  -0.049621   0.022945
    11  C    0.327995  -0.048897   0.004072   0.013256   0.033879   0.010885
    12  C   -0.528861   0.111618  -0.014930  -0.099865  -0.045421  -0.084674
    13  O   -0.011375  -0.154926   0.009411   0.127875   0.003857   0.018447
              7          8          9         10         11         12
     1  C   -0.014855   0.000981   0.004093  -0.066224   0.327995  -0.528861
     2  O    0.006692  -0.000309   0.001834  -0.008952  -0.048897   0.111618
     3  H   -0.000648   0.000078  -0.000047   0.001510   0.004072  -0.014930
     4  H    0.002652   0.001056  -0.002468   0.012420   0.013256  -0.099865
     5  H   -0.001809   0.001000  -0.002842  -0.049621   0.033879  -0.045421
     6  H    0.005113  -0.004568   0.001566   0.022945   0.010885  -0.084674
     7  H    0.492702  -0.035284  -0.015568   0.007572   0.411351  -0.045296
     8  H   -0.035284   0.573278  -0.024478  -0.006076   0.397820  -0.046836
     9  H   -0.015568  -0.024478   0.504964  -0.003705   0.394692  -0.023811
    10  H    0.007572  -0.006076  -0.003705   0.736085  -0.093636   0.358604
    11  C    0.411351   0.397820   0.394692  -0.093636   5.905486  -0.710891
    12  C   -0.045296  -0.046836  -0.023811   0.358604  -0.710891   6.715419
    13  O    0.003346   0.008540  -0.005876  -0.045512  -0.095324   0.242822
             13
     1  C   -0.011375
     2  O   -0.154926
     3  H    0.009411
     4  H    0.127875
     5  H    0.003857
     6  H    0.018447
     7  H    0.003346
     8  H    0.008540
     9  H   -0.005876
    10  H   -0.045512
    11  C   -0.095324
    12  C    0.242822
    13  O    8.475049
 Mulliken atomic charges:
              1
     1  C   -0.210820
     2  O   -0.676439
     3  H    0.364046
     4  H    0.444803
     5  H    0.202192
     6  H    0.206054
     7  H    0.184032
     8  H    0.134797
     9  H    0.171647
    10  H    0.134590
    11  C   -0.550688
    12  C    0.172120
    13  O   -0.576334
 Sum of Mulliken atomic charges =   0.00000
 Mulliken charges with hydrogens summed into heavy atoms:
              1
     1  C    0.197425
     2  O    0.132410
    11  C   -0.060212
    12  C    0.306710
    13  O   -0.576334
 Sum of Mulliken charges with hydrogens summed into heavy atoms =   0.00000
 APT atomic charges:
              1
     1  C   -0.390776
     2  O   -0.866333
     3  H    0.613486
     4  H    0.359445
     5  H    0.392777
     6  H    0.372146
     7  H    0.328301
     8  H    0.348116
     9  H    0.611814
    10  H    0.383690
    11  C   -1.259441
    12  C   -0.274997
    13  O   -0.618228
 Sum of APT charges=   0.00000
 APT Atomic charges with hydrogens summed into heavy atoms:
              1
     1  C    0.374147
     2  O    0.106598
     3  H    0.000000
     4  H    0.000000
     5  H    0.000000
     6  H    0.000000
     7  H    0.000000
     8  H    0.000000
     9  H    0.000000
    10  H    0.000000
    11  C    0.028790
    12  C    0.108694
    13  O   -0.618228
 Sum of APT charges=   0.00000
 Electronic spatial extent (au):  <R**2>=            695.4301
 Charge=              0.0000 electrons
 Dipole moment (field-independent basis, Debye):
    X=              1.1948    Y=              2.6365    Z=             -1.9090  Tot=              3.4674
 Quadrupole moment (field-independent basis, Debye-Ang):
   XX=            -29.2531   YY=            -40.0753   ZZ=            -33.4815
   XY=              0.4127   XZ=              4.3284   YZ=              2.0409
 Traceless Quadrupole moment (field-independent basis, Debye-Ang):
   XX=              5.0169   YY=             -5.8053   ZZ=              0.7885
   XY=              0.4127   XZ=              4.3284   YZ=              2.0409
 Octapole moment (field-independent basis, Debye-Ang**2):
  XXX=             74.1491  YYY=             94.7040  ZZZ=            -47.7043  XYY=             24.0406
  XXY=             23.0840  XXZ=            -12.1271  XZZ=             35.9426  YZZ=             21.9256
  YYZ=            -23.8761  XYZ=             -1.1913
 Hexadecapole moment (field-independent basis, Debye-Ang**3):
 XXXX=           -345.0131 YYYY=           -313.1806 ZZZZ=           -280.5525 XXXY=            -71.8394
 XXXZ=            -14.9058 YYYX=            -77.6189 YYYZ=             34.1642 ZZZX=             12.8626
 ZZZY=              5.5455 XXYY=            -99.5273 XXZZ=            -95.0069 YYZZ=            -93.6486
 XXYZ=              6.8516 YYXZ=             -1.2736 ZZXY=            -26.3673
 N-N= 1.897412554271D+02 E-N=-1.009714147829D+03  KE= 2.671103156627D+02
  Exact polarizability:   0.000   0.000   0.000   0.000   0.000   0.000
 Approx polarizability:  63.850  10.991 102.110   3.741  -4.852  88.077
 PrsmSu:  requested number of processors reduced to:  10 ShMem   1 Linda.
 PrsmSu:  requested number of processors reduced to:  10 ShMem   1 Linda.
 Calling FoFJK, ICntrl=    100147 FMM=F ISym2X=0 I1Cent= 0 IOpClX= 0 NMat=1 NMatS=1 NMatT=0.
 CoulSu:  requested number of processors reduced to:  10 ShMem   1 Linda.
 CalDSu:  requested number of processors reduced to:  23 ShMem   1 Linda.
 -------------------------------------------------------------------
 Center     Atomic                   Forces (Hartrees/Bohr)
 Number     Number              X              Y              Z
 -------------------------------------------------------------------
      1        6          -0.006766945   -0.009493557    0.003070767
      2        8          -0.007520424    0.001868791   -0.004067115
      3        1           0.007738487    0.000154789    0.003013445
      4        1          -0.000156985   -0.002043238   -0.000130499
      5        1           0.010379137   -0.001153322   -0.001906142
      6        1          -0.003614944    0.009224602    0.001902145
      7        1          -0.004275330    0.007290618    0.014815641
      8        1          -0.004697239    0.011304285   -0.014562965
      9        1          -0.007800954   -0.014572754   -0.001216431
     10        1           0.006616392   -0.010650664   -0.018663052
     11        6           0.016853866   -0.004439864    0.002460069
     12        6          -0.001007385    0.003271074    0.028936341
     13        8          -0.005747674    0.009239241   -0.013652204
 -------------------------------------------------------------------
 Cartesian Forces:  Max     0.028936341 RMS     0.009345680
 -----------------------------------------------------------------------------------------------
                       Internal Coordinate Forces (Hartree/Bohr or radian)
  Cent   Atom   N1       Length/X         N2         Alpha/Y        N3         Beta/Z          J
 -----------------------------------------------------------------------------------------------
      1  C 
      2  O        1  -0.001184(     1)
      3  H        2   0.008302(     2)      1   0.000351(    13)
      4  H        2   0.001967(     3)      1   0.001036(    14)      3   0.000507(    24)     0
      5  H        1   0.010613(     4)      2   0.000505(    15)      3  -0.000050(    25)     0
      6  H        1   0.010078(     5)      2   0.000803(    16)      3  -0.000503(    26)     0
      7  H        1   0.006508(     6)      2  -0.071380(    17)      3   0.039997(    27)     0
      8  H        1   0.008742(     7)      2   0.066488(    18)      3   0.059280(    28)     0
      9  H        1   0.014405(     8)      2  -0.001507(    19)      3  -0.052968(    29)     0
     10  H        1   0.017182(     9)      2   0.041740(    20)      3  -0.031870(    30)     0
     11  C        1  -0.014394(    10)      2  -0.004722(    21)      3  -0.013153(    31)     0
     12  C        1  -0.008920(    11)      2  -0.037968(    22)     11   0.035117(    32)     0
     13  O       12  -0.017445(    12)      1   0.000476(    23)      2  -0.001773(    33)     0
 -----------------------------------------------------------------------------------------------
 Internal  Forces:  Max     0.071379820 RMS     0.027287686

 GradGradGradGradGradGradGradGradGradGradGradGradGradGradGradGradGradGrad
 Berny optimization.
 Search for a saddle point.
 Step number   1 out of a maximum of   42
 All quantities printed in internal units (Hartrees-Bohrs-Radians)
 Swaping is turned off.
 Second derivative matrix not updated -- analytic derivatives used.
 ITU=  0
     Eigenvalues ---   -0.10724  -0.04583   0.00232   0.01049   0.01294
     Eigenvalues ---    0.03370   0.05988   0.06263   0.07499   0.09568
     Eigenvalues ---    0.12981   0.14847   0.16267   0.23332   0.27224
     Eigenvalues ---    0.29945   0.32548   0.39494   0.40311   0.40490
     Eigenvalues ---    0.45645   0.55912   0.57577   0.78646   1.22066
     Eigenvalues ---    2.49475   3.22206   3.77480   6.36673   7.50219
     Eigenvalues ---   18.74048  22.05006
 Eigenvectors required to have negative eigenvalues:
                          D4        D5        A6        A7        A11
   1                    0.46115  -0.41085   0.32443  -0.31800   0.25825
                          A10       A5        A8        B6        B2
   1                   -0.24938   0.24446  -0.21810   0.20924   0.19423
 RFO step:  Lambda0=1.770127588D-07 Lambda=-4.58347194D-02.
 Linear search not attempted -- option 19 set.
 Maximum step size (   0.300) exceeded in Quadratic search.
    -- Step size scaled by   0.398
 Variable       Old X    -DE/DX   Delta X   Delta X   Delta X     New X
                                 (Linear)    (Quad)   (Total)
    B1        1.81414   0.00830   0.00000   0.00702   0.00702   1.82115
    B2        1.97426   0.00197   0.00000   0.09576   0.09576   2.07002
    B3        2.02201   0.01061   0.00000   0.01154   0.01154   2.03355
    B4        2.02201   0.01008   0.00000   0.01459   0.01459   2.03660
    B5        5.22713   0.00651   0.00000   0.08708   0.08708   5.31420
    B6        5.45569   0.00874   0.00000  -0.10994  -0.10994   5.34575
    B7        6.49751   0.01441   0.00000   0.03169   0.03169   6.52920
    B8        3.96694   0.01718   0.00000  -0.04222  -0.04222   3.92472
    B9        4.81286  -0.01439   0.00000  -0.00381  -0.00381   4.80904
   B10        2.79110  -0.00892   0.00000   0.01803   0.01803   2.80913
   B11        2.70231  -0.01744   0.00000  -0.02492  -0.02492   2.67738
    A1        1.91884   0.00035   0.00000  -0.04328  -0.04328   1.87556
    A2        1.24581   0.00104   0.00000  -0.01263  -0.01263   1.23318
    A3        1.72782   0.00050   0.00000  -0.02624  -0.02624   1.70158
    A4        1.34168   0.00080   0.00000   0.10622   0.10622   1.44789
    A5        1.32938  -0.07138   0.00000  -0.06936  -0.06936   1.26003
    A6        1.95154   0.06649   0.00000  -0.06768  -0.06768   1.88386
    A7        1.67143  -0.00151   0.00000   0.00061   0.00061   1.67204
    A8        2.20579   0.04174   0.00000  -0.06055  -0.06055   2.14524
    A9        1.67409  -0.00472   0.00000  -0.04740  -0.04740   1.62669
   A10        1.77412  -0.03797   0.00000  -0.09068  -0.09068   1.68344
   A11        1.64429   0.00048   0.00000   0.11760   0.11760   1.76189
    D1       -1.78018   0.00051   0.00000  -0.00377  -0.00377  -1.78395
    D2        0.11307  -0.00005   0.00000   0.02351   0.02351   0.13658
    D3       -1.91851  -0.00050   0.00000   0.01986   0.01986  -1.89865
    D4        2.98105   0.04000   0.00000  -0.05041  -0.05041   2.93064
    D5        3.04522   0.05928   0.00000   0.04020   0.04020   3.08541
    D6        2.58092  -0.05297   0.00000   0.00189   0.00189   2.58281
    D7        1.93536  -0.03187   0.00000  -0.00681  -0.00681   1.92855
    D8        2.78226  -0.01315   0.00000  -0.00381  -0.00381   2.77844
    D9       -0.56801   0.03512   0.00000  -0.00848  -0.00848  -0.57650
   D10       -0.65904  -0.00177   0.00000   0.02006   0.02006  -0.63897
         Item               Value     Threshold  Converged?
 Maximum Force            0.071380     0.000450     NO 
 RMS     Force            0.027710     0.000300     NO 
 Maximum Displacement     0.117598     0.001800     NO 
 RMS     Displacement     0.053033     0.001200     NO 
 Predicted change in Energy=-3.712014D-03
 GradGradGradGradGradGradGradGradGradGradGradGradGradGradGradGradGradGrad

 ---------------------------------------------------------------------------------------------------
                            Z-MATRIX (ANGSTROMS AND DEGREES)
   CD    Cent   Atom    N1       Length/X        N2       Alpha/Y        N3        Beta/Z          J
 ---------------------------------------------------------------------------------------------------
      1      1  C 
      2      2  O        1   2.203291(     1)
      3      3  H        2   0.963714(     2)      1  107.462(    13)
      4      4  H        2   1.095409(     3)      1   70.656(    14)      3 -102.213(    24)      0
      5      5  H        1   1.076109(     4)      2   97.493(    15)      3    7.826(    25)      0
      6      6  H        1   1.077722(     5)      2   82.958(    16)      3 -108.784(    26)      0
      7      7  H        1   2.812154(     6)      2   72.194(    17)      3  167.913(    27)      0
      8      8  H        1   2.828850(     7)      2  107.937(    18)      3  176.781(    28)      0
      9      9  H        1   3.455104(     8)      2   95.801(    19)      3  147.984(    29)      0
     10     10  H        1   2.076871(     9)      2  122.913(    20)      3  110.498(    30)      0
     11     11  C        1   2.544835(    10)      2   93.202(    21)      3  159.193(    31)      0
     12     12  C        1   1.486529(    11)      2   96.454(    22)     11  -33.031(    32)      0
     13     13  O       12   1.416811(    12)      1  100.949(    23)      2  -36.610(    33)      0
 ---------------------------------------------------------------------------------------------------
                         Z-Matrix orientation:                         
 ---------------------------------------------------------------------
 Center     Atomic      Atomic             Coordinates (Angstroms)
 Number     Number       Type             X           Y           Z
 ---------------------------------------------------------------------
      1          6           0        0.000000    0.000000    0.000000
      2          8           0        0.000000    0.000000    2.203291
      3          1           0        0.919304    0.000000    2.492470
      4          1           0       -0.218650   -1.010177    1.840447
      5          1           0        1.056983   -0.145269   -0.140339
      6          1           0       -0.344418    1.012623    0.132123
      7          1           0       -2.618093   -0.560633    0.859937
      8          1           0       -2.687107   -0.151117   -0.871215
      9          1           0       -2.914581   -1.822361   -0.349223
     10          1           0       -0.610536   -1.633132   -1.128504
     11          6           0       -2.375151   -0.902570   -0.142167
     12          6           0       -0.871599   -1.192545   -0.167101
     13          8           0       -0.433691   -1.999261    0.912158
 ---------------------------------------------------------------------
                    Distance matrix (angstroms):
                    1          2          3          4          5
     1  C    0.000000
     2  O    2.203291   0.000000
     3  H    2.656600   0.963714   0.000000
     4  H    2.110809   1.095409   1.655454   0.000000
     5  H    1.076109   2.575057   2.640406   2.509745   0.000000
     6  H    1.077722   2.331044   2.862453   2.650644   1.838171
     7  H    2.812154   2.995550   3.936070   2.630745   3.831353
     8  H    2.828850   4.086070   4.933904   3.766216   3.814763
     9  H    3.455104   4.281485   5.108316   3.566840   4.316201
    10  H    2.076871   3.760416   4.256640   3.058811   2.443527
    11  C    2.544835   3.457911   4.313859   2.931354   3.514691
    12  C    1.486529   2.792956   3.420937   2.118927   2.194751
    13  O    2.239902   2.419122   2.885311   1.373408   2.601373
                    6          7          8          9         10
     6  H    0.000000
     7  H    2.859099   0.000000
     8  H    2.801637   1.780268   0.000000
     9  H    3.856757   1.772549   1.765581   0.000000
    10  H    2.942791   3.022323   2.564120   2.439613   0.000000
    11  C    2.804831   1.086349   1.092478   1.086220   2.149523
    12  C    2.286967   2.122348   2.208261   2.145604   1.089297
    13  O    3.112534   2.616102   3.416714   2.788762   2.080776
                   11         12         13
    11  C    0.000000
    12  C    1.531462   0.000000
    13  O    2.466496   1.416811   0.000000
 Symmetry turned off by external request.
 Stoichiometry    C3H8O2
 Framework group  C1[X(C3H8O2)]
 Deg. of freedom    33
 Full point group                 C1      NOp   1
 Rotational constants (GHZ):      6.7715469      3.4289316      3.2066845
 Standard basis: 6-31++G(d,p) (6D, 7F)
 The following finite field(s) will be applied:
 An electric field of              0.0000  0.0000 -0.0010
 Integral buffers will be    131072 words long.
 Raffenetti 2 integral format.
 Two-electron integral symmetry is turned off.
   143 basis functions,   224 primitive gaussians,   143 cartesian basis functions
    21 alpha electrons       21 beta electrons
       nuclear repulsion energy       189.8090964356 Hartrees.
 NAtoms=   13 NActive=   13 NUniq=   13 SFac= 1.00D+00 NAtFMM=   50 NAOKFM=F Big=F
 One-electron integrals computed using PRISM.
 PrsmSu:  requested number of processors reduced to:  10 ShMem   1 Linda.
 NBasis=   143 RedAO= T  NBF=   143
 NBsUse=   143 1.00D-06 NBFU=   143
 The nuclear repulsion energy is now       189.7601455771 hartrees.
 Initial guess read from the read-write file.
 B after Tr=     0.000000    0.000000    0.000000
         Rot=    1.000000    0.000000    0.000000    0.000000 Ang=   0.00 deg.
 Harris functional with IExCor=  402 diagonalized for initial guess.
 ExpMin= 3.60D-02 ExpMax= 5.48D+03 ExpMxC= 8.25D+02 IAcc=3 IRadAn=         0 AccDes= 0.00D+00
 HarFok:  IExCor=  402 AccDes= 0.00D+00 IRadAn=         0 IDoV= 1
 ScaDFX=  1.000000  1.000000  1.000000  1.000000
 FoFCou: FMM=F IPFlag=           0 FMFlag=      100000 FMFlg1=           0
         NFxFlg=           0 DoJE=T BraDBF=F KetDBF=T FulRan=T
         Omega=  0.000000  0.000000  1.000000  0.000000  0.000000 ICntrl=     500 IOpCl=  0
         NMat0=    1 NMatS0=    1 NMatT0=    0 NMatD0=    1 NMtDS0=    0 NMtDT0=    0
         I1Cent=           4 NGrid=           0.
 Symmetry not used in FoFCou.
 Requested convergence on RMS density matrix=1.00D-08 within 128 cycles.
 Requested convergence on MAX density matrix=1.00D-06.
 Requested convergence on             energy=1.00D-06.
 No special actions if energy rises.
 SCF Done:  E(RB3LYP) =  -269.487193094     A.U. after   14 cycles
             Convg  =    0.4562D-08             -V/T =  2.0095
 PrsmSu:  requested number of processors reduced to:  10 ShMem   1 Linda.
 PrsmSu:  requested number of processors reduced to:  23 ShMem   1 Linda.
 Calling FoFJK, ICntrl=      2127 FMM=F ISym2X=0 I1Cent= 0 IOpClX= 0 NMat=1 NMatS=1 NMatT=0.
 CoulSu:  requested number of processors reduced to:  16 ShMem   1 Linda.
 -------------------------------------------------------------------
 Center     Atomic                   Forces (Hartrees/Bohr)
 Number     Number              X              Y              Z
 -------------------------------------------------------------------
      1        6          -0.002392280   -0.002475729    0.022524610
      2        8          -0.004132561    0.004230298   -0.021030682
      3        1           0.005095004    0.000751743    0.001017927
      4        1          -0.002301701   -0.011291562   -0.001791744
      5        1           0.007041436   -0.000791114   -0.000835735
      6        1          -0.002871959    0.005939595   -0.002499720
      7        1          -0.005779932    0.001923072    0.003587953
      8        1           0.001680232    0.002555311   -0.002894310
      9        1          -0.003071867   -0.003789337    0.001151312
     10        1           0.004596312   -0.006433720   -0.009552893
     11        6           0.006218396   -0.001228382    0.002843759
     12        6          -0.000692146    0.000571294    0.018945488
     13        8          -0.003388936    0.010038530   -0.011465965
 -------------------------------------------------------------------
 Cartesian Forces:  Max     0.022524610 RMS     0.007440458
 -----------------------------------------------------------------------------------------------
                       Internal Coordinate Forces (Hartree/Bohr or radian)
  Cent   Atom   N1       Length/X         N2         Alpha/Y        N3         Beta/Z          J
 -----------------------------------------------------------------------------------------------
      1  C 
      2  O        1  -0.021804(     1)
      3  H        2   0.005166(     2)      1  -0.001016(    13)
      4  H        2   0.011466(     3)      1   0.004401(    14)      3   0.000272(    24)     0
      5  H        1   0.007132(     4)      2  -0.000194(    15)      3  -0.000353(    25)     0
      6  H        1   0.006192(     5)      2   0.006687(    16)      3  -0.001630(    26)     0
      7  H        1   0.006095(     6)      2  -0.009624(    17)      3   0.015638(    27)     0
      8  H        1  -0.000841(     7)      2   0.017718(    18)      3   0.012496(    28)     0
      9  H        1   0.004474(     8)      2  -0.010523(    19)      3  -0.010292(    29)     0
     10  H        1   0.008899(     9)      2   0.022055(    20)      3  -0.021608(    30)     0
     11  C        1  -0.005527(    10)      2  -0.012210(    21)      3   0.007412(    31)     0
     12  C        1  -0.006959(    11)      2  -0.022871(    22)     11   0.023532(    32)     0
     13  O       12  -0.015497(    12)      1  -0.005001(    23)      2  -0.000665(    33)     0
 -----------------------------------------------------------------------------------------------
 Internal  Forces:  Max     0.023531504 RMS     0.011717070

 GradGradGradGradGradGradGradGradGradGradGradGradGradGradGradGradGradGrad
 Berny optimization.
 Search for a saddle point.
 Step number   2 out of a maximum of   42
 All quantities printed in internal units (Hartrees-Bohrs-Radians)
 Swaping is turned off.
 Update second derivatives using D2CorN and points    1    2
 ITU=  0  0
     Eigenvalues ---   -0.11051  -0.01682   0.00235   0.01049   0.01294
     Eigenvalues ---    0.03372   0.05992   0.06341   0.07507   0.09594
     Eigenvalues ---    0.12993   0.14863   0.16277   0.23386   0.27272
     Eigenvalues ---    0.29946   0.32530   0.39486   0.40311   0.40469
     Eigenvalues ---    0.45678   0.55910   0.57572   0.78661   1.22056
     Eigenvalues ---    2.49470   3.22205   3.77483   6.36655   7.50628
     Eigenvalues ---   18.74099  22.05008
 Eigenvectors required to have negative eigenvalues:
                          D4        D5        A11       A7        A10
   1                    0.42442  -0.38262   0.31730  -0.31497  -0.29918
                          A6        B2        A8        A4        A5
   1                    0.27590   0.25469  -0.25347   0.24896   0.20144
 RFO step:  Lambda0=1.126484465D-03 Lambda=-1.80167346D-02.
 Linear search not attempted -- option 19 set.
 Maximum step size (   0.300) exceeded in Quadratic search.
    -- Step size scaled by   0.393
 Variable       Old X    -DE/DX   Delta X   Delta X   Delta X     New X
                                 (Linear)    (Quad)   (Total)
    B1        1.82115   0.00517   0.00000   0.00449   0.00449   1.82564
    B2        2.07002   0.01147   0.00000   0.08906   0.08906   2.15909
    B3        2.03355   0.00713   0.00000   0.00720   0.00720   2.04076
    B4        2.03660   0.00619   0.00000   0.00881   0.00881   2.04541
    B5        5.31420   0.00609   0.00000   0.12752   0.12752   5.44172
    B6        5.34575  -0.00084   0.00000  -0.14667  -0.14667   5.19908
    B7        6.52920   0.00447   0.00000   0.02359   0.02359   6.55279
    B8        3.92472   0.00890   0.00000  -0.02444  -0.02444   3.90028
    B9        4.80904  -0.00553   0.00000  -0.00341  -0.00341   4.80563
   B10        2.80913  -0.00696   0.00000   0.00608   0.00608   2.81521
   B11        2.67738  -0.01550   0.00000  -0.01905  -0.01905   2.65833
    A1        1.87556  -0.00102   0.00000  -0.03045  -0.03045   1.84511
    A2        1.23318   0.00440   0.00000  -0.00869  -0.00869   1.22449
    A3        1.70158  -0.00019   0.00000  -0.00415  -0.00415   1.69744
    A4        1.44789   0.00669   0.00000   0.07641   0.07641   1.52430
    A5        1.26003  -0.00962   0.00000  -0.07941  -0.07941   1.18062
    A6        1.88386   0.01772   0.00000  -0.09091  -0.09091   1.79295
    A7        1.67204  -0.01052   0.00000   0.01410   0.01410   1.68614
    A8        2.14524   0.02206   0.00000  -0.03609  -0.03609   2.10915
    A9        1.62669  -0.01221   0.00000  -0.05129  -0.05129   1.57540
   A10        1.68344  -0.02287   0.00000  -0.05917  -0.05917   1.62427
   A11        1.76189  -0.00500   0.00000   0.05517   0.05517   1.81706
    D1       -1.78395   0.00027   0.00000   0.00248   0.00248  -1.78148
    D2        0.13658  -0.00035   0.00000   0.01755   0.01755   0.15413
    D3       -1.89865  -0.00163   0.00000   0.01423   0.01423  -1.88442
    D4        2.93064   0.01564   0.00000  -0.06666  -0.06666   2.86398
    D5        3.08541   0.01250   0.00000   0.06853   0.06853   3.15395
    D6        2.58281  -0.01029   0.00000   0.01418   0.01418   2.59699
    D7        1.92855  -0.02161   0.00000   0.02033   0.02033   1.94889
    D8        2.77844   0.00741   0.00000   0.00541   0.00541   2.78385
    D9       -0.57650   0.02353   0.00000  -0.00065  -0.00065  -0.57715
   D10       -0.63897  -0.00066   0.00000  -0.01305  -0.01305  -0.65202
         Item               Value     Threshold  Converged?
 Maximum Force            0.023532     0.000450     NO 
 RMS     Force            0.011257     0.000300     NO 
 Maximum Displacement     0.146674     0.001800     NO 
 RMS     Displacement     0.053033     0.001200     NO 
 Predicted change in Energy=-2.487415D-03
 GradGradGradGradGradGradGradGradGradGradGradGradGradGradGradGradGradGrad

 ---------------------------------------------------------------------------------------------------
                            Z-MATRIX (ANGSTROMS AND DEGREES)
   CD    Cent   Atom    N1       Length/X        N2       Alpha/Y        N3        Beta/Z          J
 ---------------------------------------------------------------------------------------------------
      1      1  C 
      2      2  O        1   2.203291(     1)
      3      3  H        2   0.966088(     2)      1  105.717(    13)
      4      4  H        2   1.142539(     3)      1   70.158(    14)      3 -102.071(    24)      0
      5      5  H        1   1.079921(     4)      2   97.256(    15)      3    8.831(    25)      0
      6      6  H        1   1.082382(     5)      2   87.336(    16)      3 -107.969(    26)      0
      7      7  H        1   2.879637(     6)      2   67.645(    17)      3  164.094(    27)      0
      8      8  H        1   2.751234(     7)      2  102.728(    18)      3  180.708(    28)      0
      9      9  H        1   3.467588(     8)      2   96.609(    19)      3  148.797(    29)      0
     10     10  H        1   2.063937(     9)      2  120.845(    20)      3  111.663(    30)      0
     11     11  C        1   2.543029(    10)      2   90.264(    21)      3  159.503(    31)      0
     12     12  C        1   1.489747(    11)      2   93.064(    22)     11  -33.068(    32)      0
     13     13  O       12   1.406728(    12)      1  104.110(    23)      2  -37.358(    33)      0
 ---------------------------------------------------------------------------------------------------
                         Z-Matrix orientation:                         
 ---------------------------------------------------------------------
 Center     Atomic      Atomic             Coordinates (Angstroms)
 Number     Number       Type             X           Y           Z
 ---------------------------------------------------------------------
      1          6           0        0.000000    0.000000    0.000000
      2          8           0        0.000000    0.000000    2.203291
      3          1           0        0.929967    0.000000    2.464991
      4          1           0       -0.224752   -1.050946    1.815481
      5          1           0        1.058574   -0.164462   -0.136395
      6          1           0       -0.333562    1.028473    0.050310
      7          1           0       -2.561241   -0.729879    1.095275
      8          1           0       -2.683420    0.033151   -0.606175
      9          1           0       -2.946238   -1.784541   -0.399078
     10          1           0       -0.654127   -1.646851   -1.058223
     11          6           0       -2.382003   -0.890461   -0.011695
     12          6           0       -0.883499   -1.196844   -0.079627
     13          8           0       -0.455270   -2.010642    0.984908
 ---------------------------------------------------------------------
                    Distance matrix (angstroms):
                    1          2          3          4          5
     1  C    0.000000
     2  O    2.203291   0.000000
     3  H    2.634582   0.966088   0.000000
     4  H    2.109732   1.142539   1.691072   0.000000
     5  H    1.079921   2.573277   2.609750   2.498519   0.000000
     6  H    1.082382   2.409221   2.912893   2.729771   1.842823
     7  H    2.879637   2.884506   3.820652   2.465961   3.865200
     8  H    2.751234   3.885220   4.742333   3.617282   3.776541
     9  H    3.467588   4.317086   5.139304   3.584539   4.328069
    10  H    2.063937   3.711802   4.199347   2.966082   2.445525
    11  C    2.543029   3.372391   4.230371   2.831618   3.518550
    12  C    1.489747   2.724834   3.346069   2.011633   2.200155
    13  O    2.284731   2.394663   2.855207   1.289964   2.637694
                    6          7          8          9         10
     6  H    0.000000
     7  H    3.024287   0.000000
     8  H    2.635046   1.868710   0.000000
     9  H    3.865368   1.869125   1.848233   0.000000
    10  H    2.913583   3.019184   2.672972   2.388975   0.000000
    11  C    2.807537   1.132827   1.138998   1.125968   2.157058
    12  C    2.295942   2.100778   2.242733   2.168486   1.101257
    13  O    3.181903   2.467316   3.416619   2.858577   2.084772
                   11         12         13
    11  C    0.000000
    12  C    1.531012   0.000000
    13  O    2.441378   1.406728   0.000000
 Symmetry turned off by external request.
 Stoichiometry    C3H8O2
 Framework group  C1[X(C3H8O2)]
 Deg. of freedom    33
 Full point group                 C1      NOp   1
 Rotational constants (GHZ):      6.5754402      3.5479363      3.2930835
 Standard basis: 6-31++G(d,p) (6D, 7F)
 The following finite field(s) will be applied:
 An electric field of              0.0000  0.0000 -0.0010
 Integral buffers will be    131072 words long.
 Raffenetti 2 integral format.
 Two-electron integral symmetry is turned off.
   143 basis functions,   224 primitive gaussians,   143 cartesian basis functions
    21 alpha electrons       21 beta electrons
       nuclear repulsion energy       190.1821431268 Hartrees.
 NAtoms=   13 NActive=   13 NUniq=   13 SFac= 1.00D+00 NAtFMM=   50 NAOKFM=F Big=F
 One-electron integrals computed using PRISM.
 PrsmSu:  requested number of processors reduced to:  10 ShMem   1 Linda.
 NBasis=   143 RedAO= T  NBF=   143
 NBsUse=   143 1.00D-06 NBFU=   143
 The nuclear repulsion energy is now       190.1288833860 hartrees.
 Initial guess read from the read-write file.
 B after Tr=     0.000000    0.000000    0.000000
         Rot=    1.000000    0.000000    0.000000    0.000000 Ang=   0.00 deg.
 Harris functional with IExCor=  402 diagonalized for initial guess.
 ExpMin= 3.60D-02 ExpMax= 5.48D+03 ExpMxC= 8.25D+02 IAcc=3 IRadAn=         0 AccDes= 0.00D+00
 HarFok:  IExCor=  402 AccDes= 0.00D+00 IRadAn=         0 IDoV= 1
 ScaDFX=  1.000000  1.000000  1.000000  1.000000
 FoFCou: FMM=F IPFlag=           0 FMFlag=      100000 FMFlg1=           0
         NFxFlg=           0 DoJE=T BraDBF=F KetDBF=T FulRan=T
         Omega=  0.000000  0.000000  1.000000  0.000000  0.000000 ICntrl=     500 IOpCl=  0
         NMat0=    1 NMatS0=    1 NMatT0=    0 NMatD0=    1 NMtDS0=    0 NMtDT0=    0
         I1Cent=           4 NGrid=           0.
 Symmetry not used in FoFCou.
 Requested convergence on RMS density matrix=1.00D-08 within 128 cycles.
 Requested convergence on MAX density matrix=1.00D-06.
 Requested convergence on             energy=1.00D-06.
 No special actions if energy rises.
 SCF Done:  E(RB3LYP) =  -269.485088439     A.U. after   14 cycles
             Convg  =    0.2752D-08             -V/T =  2.0102
 PrsmSu:  requested number of processors reduced to:  10 ShMem   1 Linda.
 PrsmSu:  requested number of processors reduced to:  23 ShMem   1 Linda.
 Calling FoFJK, ICntrl=      2127 FMM=F ISym2X=0 I1Cent= 0 IOpClX= 0 NMat=1 NMatS=1 NMatT=0.
 CoulSu:  requested number of processors reduced to:  16 ShMem   1 Linda.
 -------------------------------------------------------------------
 Center     Atomic                   Forces (Hartrees/Bohr)
 Number     Number              X              Y              Z
 -------------------------------------------------------------------
      1        6           0.000166088    0.001013967    0.033956321
      2        8           0.000094204    0.009306004   -0.027628950
      3        1           0.003171048    0.001546340    0.000404644
      4        1          -0.003582824   -0.019359035   -0.002505308
      5        1           0.004812885   -0.000617567   -0.000537008
      6        1          -0.002605761    0.002846584   -0.003955117
      7        1          -0.007716935   -0.001973278   -0.024756926
      8        1           0.006210153   -0.019903382    0.011888153
      9        1           0.006260505    0.017185651    0.011172747
     10        1           0.003445491   -0.004268391   -0.004327743
     11        6          -0.010955158    0.005196753    0.007514252
     12        6           0.001270141   -0.000827915    0.008659021
     13        8          -0.000569838    0.009854270   -0.009884085
 -------------------------------------------------------------------
 Cartesian Forces:  Max     0.033956321 RMS     0.010979458
 -----------------------------------------------------------------------------------------------
                       Internal Coordinate Forces (Hartree/Bohr or radian)
  Cent   Atom   N1       Length/X         N2         Alpha/Y        N3         Beta/Z          J
 -----------------------------------------------------------------------------------------------
      1  C 
      2  O        1  -0.029730(     1)
      3  H        2   0.003162(     2)      1  -0.000857(    13)
      4  H        2   0.019362(     3)      1   0.009335(    14)      3   0.001107(    24)     0
      5  H        1   0.004880(     4)      2  -0.000163(    15)      3  -0.000260(    25)     0
      6  H        1   0.003324(     5)      2   0.008415(    16)      3  -0.003270(    26)     0
      7  H        1  -0.002053(     6)      2   0.141075(    17)      3   0.001093(    27)     0
      8  H        1  -0.008916(     7)      2  -0.052894(    18)      3  -0.100540(    28)     0
      9  H        1  -0.015449(     8)      2  -0.061973(    19)      3   0.074570(    29)     0
     10  H        1   0.004533(     9)      2   0.009102(    20)      3  -0.015999(    30)     0
     11  C        1   0.008407(    10)      2  -0.036297(    21)      3   0.048215(    31)     0
     12  C        1  -0.007601(    11)      2  -0.003190(    22)     11   0.006388(    32)     0
     13  O       12  -0.013354(    12)      1  -0.010402(    23)      2  -0.003142(    33)     0
 -----------------------------------------------------------------------------------------------
 Internal  Forces:  Max     0.141075110 RMS     0.038330632

 GradGradGradGradGradGradGradGradGradGradGradGradGradGradGradGradGradGrad
 Berny optimization.
 Search for a saddle point.
 Step number   3 out of a maximum of   42
 All quantities printed in internal units (Hartrees-Bohrs-Radians)
 Swaping is turned off.
 Update second derivatives using D2CorN and points    1    2    3
 ITU=  0  0  0
     Eigenvalues ---   -0.18278   0.00164   0.01042   0.01294   0.02728
     Eigenvalues ---    0.03751   0.06126   0.07438   0.09580   0.11861
     Eigenvalues ---    0.14271   0.16189   0.18409   0.24184   0.28200
     Eigenvalues ---    0.29944   0.32576   0.39536   0.40296   0.40436
     Eigenvalues ---    0.45871   0.55901   0.57621   0.78959   1.22115
     Eigenvalues ---    2.49493   3.22204   3.77543   6.36666   7.53309
     Eigenvalues ---   18.74441  22.05040
 Eigenvectors required to have negative eigenvalues:
                          B2        A10       A11       A4        A7
   1                    0.37555  -0.36631   0.34294   0.33542  -0.30216
                          D4        A8        D5        B6        B5
   1                    0.30068  -0.28059  -0.26116  -0.21277   0.18831
 RFO step:  Lambda0=1.896856810D-02 Lambda=-2.46804512D-02.
 Linear search not attempted -- option 19 set.
 Maximum step size (   0.300) exceeded in Quadratic search.
    -- Step size scaled by   0.697
 Variable       Old X    -DE/DX   Delta X   Delta X   Delta X     New X
                                 (Linear)    (Quad)   (Total)
    B1        1.82564   0.00316   0.00000   0.00249   0.00249   1.82813
    B2        2.15909   0.01936   0.00000  -0.10976  -0.10976   2.04932
    B3        2.04076   0.00488   0.00000   0.00477   0.00477   2.04552
    B4        2.04541   0.00332   0.00000   0.00057   0.00057   2.04597
    B5        5.44172  -0.00205   0.00000  -0.03268  -0.03268   5.40905
    B6        5.19908  -0.00892   0.00000   0.05334   0.05334   5.25242
    B7        6.55279  -0.01545   0.00000  -0.00929  -0.00929   6.54350
    B8        3.90028   0.00453   0.00000   0.07560   0.07560   3.97587
    B9        4.80563   0.00841   0.00000  -0.00471  -0.00471   4.80092
   B10        2.81521  -0.00760   0.00000  -0.02528  -0.02528   2.78993
   B11        2.65833  -0.01335   0.00000  -0.01754  -0.01754   2.64079
    A1        1.84511  -0.00086   0.00000   0.05384   0.05384   1.89895
    A2        1.22449   0.00933   0.00000   0.01937   0.01937   1.24386
    A3        1.69744  -0.00016   0.00000   0.04103   0.04103   1.73846
    A4        1.52430   0.00841   0.00000  -0.12488  -0.12488   1.39942
    A5        1.18062   0.14108   0.00000   0.04219   0.04219   1.22281
    A6        1.79295  -0.05289   0.00000   0.04081   0.04081   1.83376
    A7        1.68614  -0.06197   0.00000   0.00063   0.00063   1.68677
    A8        2.10915   0.00910   0.00000   0.08119   0.08119   2.19033
    A9        1.57540  -0.03630   0.00000   0.02987   0.02987   1.60526
   A10        1.62427  -0.00319   0.00000   0.09710   0.09710   1.72137
   A11        1.81706  -0.01040   0.00000  -0.13925  -0.13925   1.67781
    D1       -1.78148   0.00111   0.00000   0.01374   0.01374  -1.76774
    D2        0.15413  -0.00026   0.00000  -0.01994  -0.01994   0.13419
    D3       -1.88442  -0.00327   0.00000  -0.01512  -0.01512  -1.89954
    D4        2.86398   0.00109   0.00000   0.03853   0.03853   2.90251
    D5        3.15395  -0.10054   0.00000  -0.01042  -0.01042   3.14352
    D6        2.59699   0.07457   0.00000   0.00780   0.00780   2.60479
    D7        1.94889  -0.01600   0.00000   0.03211   0.03211   1.98100
    D8        2.78385   0.04822   0.00000   0.01053   0.01053   2.79438
    D9       -0.57715   0.00639   0.00000   0.01088   0.01088  -0.56628
   D10       -0.65202  -0.00314   0.00000  -0.05667  -0.05667  -0.70869
         Item               Value     Threshold  Converged?
 Maximum Force            0.141075     0.000450     NO 
 RMS     Force            0.038569     0.000300     NO 
 Maximum Displacement     0.139245     0.001800     NO 
 RMS     Displacement     0.053033     0.001200     NO 
 Predicted change in Energy=-2.707753D-03
 GradGradGradGradGradGradGradGradGradGradGradGradGradGradGradGradGradGrad

 ---------------------------------------------------------------------------------------------------
                            Z-MATRIX (ANGSTROMS AND DEGREES)
   CD    Cent   Atom    N1       Length/X        N2       Alpha/Y        N3        Beta/Z          J
 ---------------------------------------------------------------------------------------------------
      1      1  C 
      2      2  O        1   2.203291(     1)
      3      3  H        2   0.967403(     2)      1  108.802(    13)
      4      4  H        2   1.084454(     3)      1   71.268(    14)      3 -101.284(    24)      0
      5      5  H        1   1.082445(     4)      2   99.606(    15)      3    7.689(    25)      0
      6      6  H        1   1.082683(     5)      2   80.181(    16)      3 -108.835(    26)      0
      7      7  H        1   2.862344(     6)      2   70.062(    17)      3  166.302(    27)      0
      8      8  H        1   2.779460(     7)      2  105.067(    18)      3  180.111(    28)      0
      9      9  H        1   3.462671(     8)      2   96.645(    19)      3  149.244(    29)      0
     10     10  H        1   2.103942(     9)      2  125.497(    20)      3  113.503(    30)      0
     11     11  C        1   2.540538(    10)      2   91.975(    21)      3  160.106(    31)      0
     12     12  C        1   1.476369(    11)      2   98.627(    22)     11  -32.445(    32)      0
     13     13  O       12   1.397444(    12)      1   96.132(    23)      2  -40.605(    33)      0
 ---------------------------------------------------------------------------------------------------
                         Z-Matrix orientation:                         
 ---------------------------------------------------------------------
 Center     Atomic      Atomic             Coordinates (Angstroms)
 Number     Number       Type             X           Y           Z
 ---------------------------------------------------------------------
      1          6           0        0.000000    0.000000    0.000000
      2          8           0        0.000000    0.000000    2.203291
      3          1           0        0.915781    0.000000    2.515081
      4          1           0       -0.200958   -1.007158    1.855024
      5          1           0        1.057671   -0.142790   -0.180639
      6          1           0       -0.344425    1.009694    0.184640
      7          1           0       -2.614239   -0.637204    0.976085
      8          1           0       -2.683908    0.005179   -0.722502
      9          1           0       -2.955658   -1.758870   -0.400691
     10          1           0       -0.683104   -1.570817   -1.221670
     11          6           0       -2.387512   -0.863975   -0.087550
     12          6           0       -0.891836   -1.155529   -0.221465
     13          8           0       -0.362800   -1.950146    0.799101
 ---------------------------------------------------------------------
                    Distance matrix (angstroms):
                    1          2          3          4          5
     1  C    0.000000
     2  O    2.203291   0.000000
     3  H    2.676619   0.967403   0.000000
     4  H    2.120346   1.084454   1.642301   0.000000
     5  H    1.082445   2.611929   2.703225   2.544642   0.000000
     6  H    1.082683   2.283212   2.835235   2.622681   1.851356
     7  H    2.862344   2.957415   3.903278   2.594865   3.881414
     8  H    2.779460   3.970346   4.841460   3.719342   3.783506
     9  H    3.462671   4.313961   5.155909   3.638913   4.332083
    10  H    2.103942   3.829419   4.357431   3.164841   2.480585
    11  C    2.540538   3.419739   4.293238   2.928329   3.521088
    12  C    1.476369   2.830204   3.477271   2.193429   2.197244
    13  O    2.138517   2.430317   2.895242   1.424918   2.498832
                    6          7          8          9         10
     6  H    0.000000
     7  H    2.913882   0.000000
     8  H    2.702801   1.817336   0.000000
     9  H    3.850467   1.808374   1.813638   0.000000
    10  H    2.958284   3.071000   2.595409   2.423607   0.000000
    11  C    2.785485   1.110923   1.116442   1.105298   2.165840
    12  C    2.269971   2.160893   2.193126   2.157662   1.102925
    13  O    3.023003   2.612301   3.395013   2.863390   2.080865
                   11         12         13
    11  C    0.000000
    12  C    1.529701   0.000000
    13  O    2.462799   1.397444   0.000000
 Symmetry turned off by external request.
 Stoichiometry    C3H8O2
 Framework group  C1[X(C3H8O2)]
 Deg. of freedom    33
 Full point group                 C1      NOp   1
 Rotational constants (GHZ):      6.8016195      3.4043017      3.2790758
 Standard basis: 6-31++G(d,p) (6D, 7F)
 The following finite field(s) will be applied:
 An electric field of              0.0000  0.0000 -0.0010
 Integral buffers will be    131072 words long.
 Raffenetti 2 integral format.
 Two-electron integral symmetry is turned off.
   143 basis functions,   224 primitive gaussians,   143 cartesian basis functions
    21 alpha electrons       21 beta electrons
       nuclear repulsion energy       190.2453710076 Hartrees.
 NAtoms=   13 NActive=   13 NUniq=   13 SFac= 1.00D+00 NAtFMM=   50 NAOKFM=F Big=F
 One-electron integrals computed using PRISM.
 PrsmSu:  requested number of processors reduced to:  10 ShMem   1 Linda.
 NBasis=   143 RedAO= T  NBF=   143
 NBsUse=   143 1.00D-06 NBFU=   143
 The nuclear repulsion energy is now       190.1978058900 hartrees.
 Initial guess read from the read-write file.
 B after Tr=     0.000000    0.000000    0.000000
         Rot=    1.000000    0.000000    0.000000    0.000000 Ang=   0.00 deg.
 Harris functional with IExCor=  402 diagonalized for initial guess.
 ExpMin= 3.60D-02 ExpMax= 5.48D+03 ExpMxC= 8.25D+02 IAcc=3 IRadAn=         0 AccDes= 0.00D+00
 HarFok:  IExCor=  402 AccDes= 0.00D+00 IRadAn=         0 IDoV= 1
 ScaDFX=  1.000000  1.000000  1.000000  1.000000
 FoFCou: FMM=F IPFlag=           0 FMFlag=      100000 FMFlg1=           0
         NFxFlg=           0 DoJE=T BraDBF=F KetDBF=T FulRan=T
         Omega=  0.000000  0.000000  1.000000  0.000000  0.000000 ICntrl=     500 IOpCl=  0
         NMat0=    1 NMatS0=    1 NMatT0=    0 NMatD0=    1 NMtDS0=    0 NMtDT0=    0
         I1Cent=           4 NGrid=           0.
 Symmetry not used in FoFCou.
 Requested convergence on RMS density matrix=1.00D-08 within 128 cycles.
 Requested convergence on MAX density matrix=1.00D-06.
 Requested convergence on             energy=1.00D-06.
 No special actions if energy rises.
 SCF Done:  E(RB3LYP) =  -269.485880288     A.U. after   14 cycles
             Convg  =    0.3762D-08             -V/T =  2.0098
 PrsmSu:  requested number of processors reduced to:  10 ShMem   1 Linda.
 PrsmSu:  requested number of processors reduced to:  23 ShMem   1 Linda.
 Calling FoFJK, ICntrl=      2127 FMM=F ISym2X=0 I1Cent= 0 IOpClX= 0 NMat=1 NMatS=1 NMatT=0.
 CoulSu:  requested number of processors reduced to:  16 ShMem   1 Linda.
 -------------------------------------------------------------------
 Center     Atomic                   Forces (Hartrees/Bohr)
 Number     Number              X              Y              Z
 -------------------------------------------------------------------
      1        6          -0.001107141    0.005651708    0.008613168
      2        8          -0.002239562   -0.006331469   -0.012157391
      3        1           0.001330463    0.000952476    0.000201549
      4        1           0.000708272    0.002847061   -0.001702072
      5        1           0.001499167   -0.000845151   -0.000139013
      6        1           0.000226744    0.002307276    0.000594094
      7        1          -0.000147949   -0.001494038   -0.011141520
      8        1           0.001609709   -0.010022295    0.005685660
      9        1           0.001781990    0.007388164    0.003729075
     10        1           0.000745032   -0.002100199   -0.002173349
     11        6          -0.005500503    0.003719492    0.001347385
     12        6           0.002737142    0.002046345    0.006273023
     13        8          -0.001643363   -0.004119369    0.000869392
 -------------------------------------------------------------------
 Cartesian Forces:  Max     0.012157391 RMS     0.004482616
 -----------------------------------------------------------------------------------------------
                       Internal Coordinate Forces (Hartree/Bohr or radian)
  Cent   Atom   N1       Length/X         N2         Alpha/Y        N3         Beta/Z          J
 -----------------------------------------------------------------------------------------------
      1  C 
      2  O        1  -0.013658(     1)
      3  H        2   0.001324(     2)      1  -0.000435(    13)
      4  H        2  -0.002229(     3)      1  -0.005232(    14)      3   0.000267(    24)     0
      5  H        1   0.001600(     4)      2  -0.000265(    15)      3   0.001285(    25)     0
      6  H        1   0.002181(     5)      2  -0.000461(    16)      3   0.001934(    26)     0
      7  H        1  -0.003332(     6)      2   0.057570(    17)      3  -0.007203(    27)     0
      8  H        1  -0.003051(     7)      2  -0.026613(    18)      3  -0.050816(    28)     0
      9  H        1  -0.005705(     8)      2  -0.020217(    19)      3   0.035343(    29)     0
     10  H        1   0.002588(     9)      2   0.003275(    20)      3  -0.004923(    30)     0
     11  C        1   0.003858(    10)      2  -0.007111(    21)      3   0.026466(    31)     0
     12  C        1  -0.000110(    11)      2  -0.012385(    22)     11   0.000704(    32)     0
     13  O       12   0.002355(    12)      1   0.010185(    23)      2   0.000138(    33)     0
 -----------------------------------------------------------------------------------------------
 Internal  Forces:  Max     0.057570459 RMS     0.017120033

 GradGradGradGradGradGradGradGradGradGradGradGradGradGradGradGradGradGrad
 Berny optimization.
 Search for a saddle point.
 Step number   4 out of a maximum of   42
 All quantities printed in internal units (Hartrees-Bohrs-Radians)
 Swaping is turned off.
 Update second derivatives using D2CorN and points    1    2    3    4
 ITU=  0  0  0  0
     Eigenvalues ---   -0.16538   0.00203   0.01036   0.01300   0.01987
     Eigenvalues ---    0.03713   0.06104   0.07547   0.09597   0.11824
     Eigenvalues ---    0.14447   0.16293   0.18232   0.24225   0.28172
     Eigenvalues ---    0.29932   0.33866   0.39637   0.40257   0.40479
     Eigenvalues ---    0.46124   0.55888   0.58266   0.78992   1.22061
     Eigenvalues ---    2.49519   3.22199   3.77556   6.36485   7.54185
     Eigenvalues ---   18.74505  22.05038
 Eigenvectors required to have negative eigenvalues:
                          B2        B6        A10       B5        A7
   1                    0.37309  -0.35418  -0.34417   0.32517  -0.29892
                          A4        D4        A11       A8        D5
   1                    0.29279   0.28407   0.25833  -0.24868  -0.19821
 RFO step:  Lambda0=3.039825209D-03 Lambda=-5.43552036D-03.
 Linear search not attempted -- option 19 set.
 Variable       Old X    -DE/DX   Delta X   Delta X   Delta X     New X
                                 (Linear)    (Quad)   (Total)
    B1        1.82813   0.00132   0.00000   0.00128   0.00128   1.82940
    B2        2.04932  -0.00223   0.00000  -0.04413  -0.04413   2.00519
    B3        2.04552   0.00160   0.00000   0.00272   0.00272   2.04824
    B4        2.04597   0.00218   0.00000   0.00325   0.00325   2.04923
    B5        5.40905  -0.00333   0.00000  -0.11027  -0.11027   5.29878
    B6        5.25242  -0.00305   0.00000   0.15014   0.15014   5.40256
    B7        6.54350  -0.00571   0.00000   0.00147   0.00147   6.54497
    B8        3.97587   0.00259   0.00000   0.00815   0.00815   3.98403
    B9        4.80092   0.00386   0.00000   0.01061   0.01061   4.81153
   B10        2.78993  -0.00011   0.00000   0.00714   0.00714   2.79707
   B11        2.64079   0.00236   0.00000   0.00359   0.00359   2.64438
    A1        1.89895  -0.00044   0.00000   0.00796   0.00796   1.90691
    A2        1.24386  -0.00523   0.00000  -0.00615  -0.00615   1.23771
    A3        1.73846  -0.00027   0.00000  -0.03130  -0.03130   1.70716
    A4        1.39942  -0.00046   0.00000  -0.01605  -0.01605   1.38337
    A5        1.22281   0.05757   0.00000   0.06526   0.06526   1.28807
    A6        1.83376  -0.02661   0.00000   0.07831   0.07831   1.91207
    A7        1.68677  -0.02022   0.00000   0.01374   0.01374   1.70051
    A8        2.19033   0.00327   0.00000   0.00520   0.00520   2.19554
    A9        1.60526  -0.00711   0.00000   0.05622   0.05622   1.66149
   A10        1.72137  -0.01239   0.00000   0.02629   0.02629   1.74766
   A11        1.67781   0.01019   0.00000   0.01410   0.01410   1.69191
    D1       -1.76774   0.00027   0.00000  -0.00539  -0.00539  -1.77313
    D2        0.13419   0.00128   0.00000  -0.03690  -0.03690   0.09730
    D3       -1.89954   0.00193   0.00000  -0.03594  -0.03594  -1.93548
    D4        2.90251  -0.00720   0.00000   0.00194   0.00194   2.90445
    D5        3.14352  -0.05082   0.00000  -0.07581  -0.07581   3.06772
    D6        2.60479   0.03534   0.00000  -0.04773  -0.04773   2.55707
    D7        1.98100  -0.00492   0.00000  -0.08869  -0.08869   1.89231
    D8        2.79438   0.02647   0.00000  -0.03919  -0.03919   2.75519
    D9       -0.56628   0.00070   0.00000  -0.00478  -0.00478  -0.57106
   D10       -0.70869   0.00014   0.00000   0.06858   0.06858  -0.64011
         Item               Value     Threshold  Converged?
 Maximum Force            0.057570     0.000450     NO 
 RMS     Force            0.017217     0.000300     NO 
 Maximum Displacement     0.150141     0.001800     NO 
 RMS     Displacement     0.049291     0.001200     NO 
 Predicted change in Energy=-1.332659D-03
 GradGradGradGradGradGradGradGradGradGradGradGradGradGradGradGradGradGrad

 ---------------------------------------------------------------------------------------------------
                            Z-MATRIX (ANGSTROMS AND DEGREES)
   CD    Cent   Atom    N1       Length/X        N2       Alpha/Y        N3        Beta/Z          J
 ---------------------------------------------------------------------------------------------------
      1      1  C 
      2      2  O        1   2.203291(     1)
      3      3  H        2   0.968079(     2)      1  109.258(    13)
      4      4  H        2   1.061101(     3)      1   70.915(    14)      3 -101.593(    24)      0
      5      5  H        1   1.083884(     4)      2   97.813(    15)      3    5.575(    25)      0
      6      6  H        1   1.084403(     5)      2   79.261(    16)      3 -110.895(    26)      0
      7      7  H        1   2.803994(     6)      2   73.801(    17)      3  166.413(    27)      0
      8      8  H        1   2.858911(     7)      2  109.554(    18)      3  175.767(    28)      0
      9      9  H        1   3.463448(     8)      2   97.432(    19)      3  146.509(    29)      0
     10     10  H        1   2.108257(     9)      2  125.795(    20)      3  108.421(    30)      0
     11     11  C        1   2.546152(    10)      2   95.196(    21)      3  157.861(    31)      0
     12     12  C        1   1.480147(    11)      2  100.133(    22)     11  -32.719(    32)      0
     13     13  O       12   1.399346(    12)      1   96.939(    23)      2  -36.676(    33)      0
 ---------------------------------------------------------------------------------------------------
                         Z-Matrix orientation:                         
 ---------------------------------------------------------------------
 Center     Atomic      Atomic             Coordinates (Angstroms)
 Number     Number       Type             X           Y           Z
 ---------------------------------------------------------------------
[...]
     10  H        1   0.000010(     9)      2  -0.000001(    20)      3  -0.000015(    30)     0
     11  C        1   0.000025(    10)      2  -0.000052(    21)      3   0.000114(    31)     0
     12  C        1  -0.000005(    11)      2   0.000004(    22)     11  -0.000022(    32)     0
     13  O       12  -0.000038(    12)      1   0.000005(    23)      2  -0.000002(    33)     0
 -----------------------------------------------------------------------------------------------
 Internal  Forces:  Max     0.001361847 RMS     0.000261336

 GradGradGradGradGradGradGradGradGradGradGradGradGradGradGradGradGradGrad
 Berny optimization.
 Search for a saddle point.
 Step number   1 out of a maximum of    2
 All quantities printed in internal units (Hartrees-Bohrs-Radians)
 Swaping is turned off.
 Second derivative matrix not updated -- analytic derivatives used.
 ITU=  0
     Eigenvalues ---   -0.06084   0.00261   0.01114   0.01362   0.01520
     Eigenvalues ---    0.03461   0.06202   0.07996   0.09376   0.11441
     Eigenvalues ---    0.14208   0.16215   0.18772   0.27179   0.28519
     Eigenvalues ---    0.29661   0.33635   0.36846   0.37235   0.41139
     Eigenvalues ---    0.46260   0.52908   0.60106   0.81859   1.15698
     Eigenvalues ---    2.60560   3.35098   3.85154   5.48604   6.73764
     Eigenvalues ---   16.59897  19.38690
 Eigenvectors required to have negative eigenvalues:
                          A11       A4        A10       B2        A8
   1                    0.48672   0.41977  -0.38739   0.37124  -0.29632
                          B8        A7        A1        A9        D10
   1                   -0.19133  -0.16763  -0.16391  -0.14153   0.11603
 Angle between quadratic step and forces=  85.22 degrees.
 Linear search not attempted -- option 19 set.
 Variable       Old X    -DE/DX   Delta X   Delta X   Delta X     New X
                                 (Linear)    (Quad)   (Total)
    B1        1.82945   0.00001   0.00000   0.00001   0.00001   1.82947
    B2        1.97094   0.00002   0.00000  -0.00022  -0.00022   1.97072
    B3        2.04936   0.00002   0.00000   0.00003   0.00003   2.04940
    B4        2.04879   0.00001   0.00000   0.00002   0.00002   2.04881
    B5        5.24984  -0.00001   0.00000  -0.00032  -0.00032   5.24952
    B6        5.47438  -0.00005   0.00000  -0.00082  -0.00082   5.47357
    B7        6.53766  -0.00004   0.00000  -0.00011  -0.00011   6.53756
    B8        4.01515   0.00001   0.00000   0.00036   0.00036   4.01551
    B9        4.81258   0.00002   0.00000  -0.00032  -0.00032   4.81225
   B10        2.79248  -0.00001   0.00000  -0.00003  -0.00003   2.79245
   B11        2.64057  -0.00004   0.00000  -0.00011  -0.00011   2.64045
    A1        1.93021   0.00000   0.00000   0.00021   0.00021   1.93043
    A2        1.25276   0.00000   0.00000   0.00008   0.00008   1.25283
    A3        1.72955  -0.00001   0.00000   0.00001   0.00001   1.72956
    A4        1.34523   0.00002   0.00000  -0.00026  -0.00026   1.34496
    A5        1.31082   0.00037   0.00000   0.00007   0.00007   1.31089
    A6        1.94584  -0.00030   0.00000   0.00002   0.00002   1.94586
    A7        1.66375  -0.00005   0.00000   0.00007   0.00007   1.66382
    A8        2.21297   0.00000   0.00000   0.00013   0.00013   2.21311
    A9        1.66383  -0.00005   0.00000   0.00005   0.00005   1.66388
   A10        1.76633   0.00000   0.00000   0.00021   0.00021   1.76653
   A11        1.65175   0.00001   0.00000  -0.00030  -0.00030   1.65145
    D1       -1.78196   0.00000   0.00000   0.00005   0.00005  -1.78191
    D2        0.12605   0.00000   0.00000  -0.00011  -0.00011   0.12593
    D3       -1.90502   0.00000   0.00000  -0.00012  -0.00012  -1.90515
    D4        2.99232  -0.00013   0.00000   0.00010   0.00010   2.99242
    D5        3.06322  -0.00024   0.00000   0.00017   0.00017   3.06339
    D6        2.58787   0.00027   0.00000   0.00020   0.00020   2.58807
    D7        1.94537  -0.00001   0.00000   0.00008   0.00008   1.94546
    D8        2.79202   0.00011   0.00000   0.00010   0.00010   2.79212
    D9       -0.56755  -0.00002   0.00000  -0.00009  -0.00009  -0.56764
   D10       -0.66940   0.00000   0.00000  -0.00009  -0.00009  -0.66949
         Item               Value     Threshold  Converged?
 Maximum Force            0.000369     0.000450     YES
 RMS     Force            0.000112     0.000300     YES
 Maximum Displacement     0.000816     0.001800     YES
 RMS     Displacement     0.000217     0.001200     YES
 Predicted change in Energy=-3.232675D-08
 Optimization completed.
    -- Stationary point found.
                       ----------------------------
                       !   Optimized Parameters   !
                       ! (Angstroms and Degrees)  !
 ----------------------                            ----------------------
 !      Name          Value   Derivative information (Atomic Units)     !
 ------------------------------------------------------------------------
 !       B1          0.9681   -DE/DX =    0.0                           !
 !       B2          1.043    -DE/DX =    0.0                           !
 !       B3          1.0845   -DE/DX =    0.0                           !
 !       B4          1.0842   -DE/DX =    0.0                           !
 !       B5          2.7781   -DE/DX =    0.0                           !
 !       B6          2.8969   -DE/DX =   -0.0001                        !
 !       B7          3.4596   -DE/DX =    0.0                           !
 !       B8          2.1247   -DE/DX =    0.0                           !
 !       B9          2.5467   -DE/DX =    0.0                           !
 !       B10         1.4777   -DE/DX =    0.0                           !
 !       B11         1.3973   -DE/DX =    0.0                           !
 !       A1        110.593    -DE/DX =    0.0                           !
 !       A2         71.7776   -DE/DX =    0.0                           !
 !       A3         99.0958   -DE/DX =    0.0                           !
 !       A4         77.0759   -DE/DX =    0.0                           !
 !       A5         75.1044   -DE/DX =    0.0004                        !
 !       A6        111.4881   -DE/DX =   -0.0003                        !
 !       A7         95.3257   -DE/DX =    0.0                           !
 !       A8        126.7939   -DE/DX =    0.0                           !
 !       A9         95.3306   -DE/DX =   -0.0001                        !
 !       A10       101.2031   -DE/DX =    0.0                           !
 !       A11        94.6384   -DE/DX =    0.0                           !
 !       D1       -102.0988   -DE/DX =    0.0                           !
 !       D2          7.2219   -DE/DX =    0.0                           !
 !       D3       -109.1498   -DE/DX =    0.0                           !
 !       D4        171.4474   -DE/DX =   -0.0001                        !
 !       D5        175.5094   -DE/DX =   -0.0002                        !
 !       D6        148.274    -DE/DX =    0.0003                        !
 !       D7        111.4618   -DE/DX =    0.0                           !
 !       D8        159.9709   -DE/DX =    0.0001                        !
 !       D9        -32.5182   -DE/DX =    0.0                           !
 !       D10       -38.354    -DE/DX =    0.0                           !
 ------------------------------------------------------------------------
 GradGradGradGradGradGradGradGradGradGradGradGradGradGradGradGradGradGrad

 1\1\GINC-C24N14\Freq\RB3LYP\6-31++G(d,p)\C3H8O2\ROOT\27-Feb-2018\1\\#N
  Geom=AllCheck Guess=TCheck SCRF=Check GenChk RB3LYP/6-31++G(d,p) Freq
 \\OH-BACK-TERM\\0,1\C\O,1,2.20329058\H,2,B1,1,A1\H,2,B2,1,A2,3,D1,0\H,
 1,B3,2,A3,3,D2,0\H,1,B4,2,A4,3,D3,0\H,1,B5,2,A5,3,D4,0\H,1,B6,2,A6,3,D
 5,0\H,1,B7,2,A7,3,D6,0\H,1,B8,2,A8,3,D7,0\C,1,B9,2,A9,3,D8,0\C,1,B10,2
 ,A10,11,D9,0\O,12,B11,1,A11,2,D10,0\\B1=0.96810579\B2=1.04297543\B3=1.
 0844758\B4=1.08417444\B5=2.77809806\B6=2.89691754\B7=3.45958209\B8=2.1
 2472399\B9=2.54670511\B10=1.47771646\B11=1.39732724\A1=110.59298356\A2
 =71.77762853\A3=99.09576754\A4=77.07588644\A5=75.10441482\A6=111.48814
 041\A7=95.32566604\A8=126.79390439\A9=95.33060303\A10=101.2030586\A11=
 94.63836427\D1=-102.09876275\D2=7.22187919\D3=-109.14979459\D4=171.447
 35613\D5=175.50935828\D6=148.27402685\D7=111.46176115\D8=159.97085952\
 D9=-32.51822038\D10=-38.35396523\\Version=EM64L-G09RevB.01\HF=-269.487
 1964\RMSD=4.486e-09\RMSF=3.161e-04\ZeroPoint=0.1070782\Thermal=0.11319
 69\Dipole=0.5123348,1.0241876,-0.6670532\DipoleDeriv=0.1432113,-0.0353
 631,0.0962403,0.1047108,0.6070258,0.2091783,0.2039046,0.2804892,0.7238
 721,-0.3640502,-0.093471,-0.1531821,-0.1673549,-0.5927129,-0.3294705,-
 0.2258264,-0.4413069,-1.141233,0.1874428,0.0392947,0.0467447,0.0596773
 ,0.2948749,0.0310922,-0.0013586,-0.0110127,0.2875378,0.2566861,0.08718
 27,0.1035744,0.127609,0.3418832,0.3771143,0.0869426,0.1093345,0.575096
 2,-0.0186201,-0.0076859,0.004384,0.0089989,0.0562132,0.0250854,-0.0137
 26,0.0009191,0.0068813,0.06006,0.0309648,0.0189713,0.0215978,0.0421612
 ,0.0327493,-0.0272382,-0.1040678,0.0065079,0.035816,0.0020196,-0.00642
 7,0.0373919,0.026513,-0.0586163,0.0609167,-0.0696006,-0.0623096,-0.024
 3855,-0.0143138,-0.0242048,0.074933,-0.0062152,0.1174437,-0.0718844,0.
 1062102,-0.0763927,0.0025,-0.0275658,-0.024057,-0.1020071,-0.0732704,-
 0.0223147,-0.0057105,-0.0126716,0.0779657,-0.0301126,0.0381859,0.02539
 24,0.0167792,0.060274,-0.0898051,0.0132097,-0.0996958,-0.2192447,-0.10
 79768,0.0539299,0.006229,0.0418296,0.1320076,-0.0451712,-0.0209569,-0.
 0630191,0.102995,0.553141,0.0587363,0.1651504,-0.2005125,0.0968839,-0.
 2099934,0.1687481,0.2407653,0.5828123,-0.693712,-0.1319143,-0.2588157,
 -0.0236529,-0.9856382,-0.0372921,-0.1670206,0.0636563,-0.8644884\Polar
 =52.8466802,5.8976922,56.4640079,6.3277116,2.73228,61.4648914\PG=C01 [
 X(C3H8O2)]\NImag=1\\0.61853180,-0.03960594,0.54820142,-0.05408610,0.10
 360628,0.15797136,-0.01321809,0.00403864,0.00452090,0.51035507,-0.0008
 8626,-0.01931670,-0.00189315,0.03470453,0.30273890,0.00747757,0.021917
 09,0.02024708,0.19060475,0.09528021,0.12912831,0.00102747,-0.00241261,
 -0.00603578,-0.45588327,-0.01740143,-0.16683757,0.46151206,0.00125381,
 -0.00215791,-0.00092524,0.02163067,-0.03581409,0.00605270,0.00904570,0
 .03243404,-0.00537872,0.00366779,0.00311815,-0.15901840,-0.00688641,-0
 .07286364,0.17137822,0.00600573,0.07530969,0.00482702,0.00470037,0.010
 02911,-0.05177065,0.00308787,-0.02109123,-0.00838079,-0.03464997,-0.00
 962795,0.07272287,0.00342164,0.01979942,0.03190771,-0.04083075,-0.2085
 9192,-0.08140472,0.00873883,0.00967942,0.00106096,0.02170382,0.1895939
 6,0.00372126,0.02144570,-0.00140207,-0.01669482,-0.02346225,-0.0464109
 4,-0.00023914,-0.00839965,-0.00395367,0.01090170,-0.00173121,0.0409866
 2,-0.34293440,0.03694396,0.05339955,0.00109507,-0.00020738,-0.00088838
 ,0.00034913,-0.00004752,0.00041493,-0.00030334,0.00045141,0.00037168,0
 .35592016,0.04262075,-0.06004084,-0.01226023,-0.00262732,-0.00063136,0
 .00224921,-0.00005284,0.00065421,-0.00072422,0.00001846,0.00066962,0.0
 0048765,-0.03973616,0.05399734,0.04750547,-0.01643229,-0.04201579,0.00
 428089,0.00003868,-0.00504672,0.00040192,-0.00045769,-0.00027955,0.000
 37120,-0.00020203,-0.00036548,-0.05118812,0.01299952,0.03699358,-0.094
 47049,0.08387065,0.02420106,0.00039245,-0.00081168,0.00071208,0.000104
 65,0.00059367,0.00003166,0.00013405,0.00017096,0.00035473,-0.00289141,
 0.02436961,0.00578022,0.08358844,0.08872616,-0.31214492,-0.06676882,0.
 00071722,-0.00104401,0.00638795,-0.00088099,0.00008833,0.00068957,0.00
 099364,0.00324381,0.00198758,-0.00253013,0.00326898,-0.00341820,-0.093
 38097,0.31397168,0.02484800,-0.06684315,-0.04395755,-0.00502145,0.0106
 2339,-0.02244933,0.00148909,0.00151921,-0.00282881,-0.00176275,-0.0072
 3926,-0.00539649,-0.00120440,-0.00544372,0.00579582,-0.02562344,0.0741
 5736,0.04834068,0.00128048,0.00160983,0.00170407,0.00035502,-0.0002236
 3,-0.00050899,0.00011896,-0.00016954,0.00006027,-0.00073769,0.00075358
 ,0.00008807,0.00027701,-0.00010626,-0.00011047,-0.00016004,-0.00080477
 ,0.00001364,0.06858594,-0.00065209,0.00101713,0.00041295,-0.00011826,0
 .00005420,0.00016220,-0.00008330,-0.00003656,-0.00003681,0.00063029,-0
 .00004391,-0.00014469,0.00011796,-0.00010694,0.00018246,0.00009658,0.0
 0009164,-0.00016316,-0.02995090,0.10046472,-0.00026823,-0.00036687,-0.
 00013574,-0.00022547,0.00036685,0.00006376,-0.00010666,-0.00004010,-0.
 00000281,-0.00006022,-0.00045317,-0.00024029,-0.00000052,0.00019037,0.
 00018143,0.00060292,0.00033481,-0.00012129,-0.06132793,0.10969427,0.26
 893808,0.00148229,0.00067737,0.00090116,0.00026351,-0.00012302,-0.0013
 0173,0.00008848,0.00004975,0.00006614,-0.00024456,-0.00014214,0.000269
 37,0.00022985,0.00015353,-0.00001589,-0.00017973,-0.00026102,-0.000389
 11,0.00153840,-0.00596946,0.00552437,0.06953671,0.00048851,-0.00053367
 ,-0.00046245,-0.00011372,0.00019959,0.00069983,-0.00006552,-0.00000452
 ,-0.00004258,0.00022985,-0.00013294,-0.00015293,0.00009077,0.00005449,
 0.00002814,-0.00000063,0.00002351,0.00006596,-0.00510283,0.00937572,-0
 .01072102,-0.04730492,0.14820919,-0.00043159,0.00105892,-0.00011677,-0
 .00016096,-0.00023154,-0.00014624,-0.00003184,0.00003695,0.00003174,0.
 00051643,0.00008881,0.00022433,-0.00002190,-0.00011796,-0.00019535,-0.
 00022792,-0.00025405,-0.00024398,-0.00800442,0.01750505,-0.01846999,0.
 05808579,-0.12904846,0.20821696,-0.00658657,0.00140765,0.00136554,0.00
 007884,0.00008647,0.00046019,0.00001280,0.00000995,0.00006216,-0.00006
 265,0.00009096,0.00008774,-0.00117805,-0.00112813,-0.00133798,0.000087
 78,-0.00005669,0.00026290,0.00403358,0.00755766,0.00001422,0.00499739,
 0.00898177,0.00163979,0.12204310,0.00176104,0.00018088,0.00077183,-0.0
 0008768,0.00002083,-0.00016397,-0.00000529,0.00003215,0.00001418,0.000
 04099,-0.00008312,0.00005648,0.00038855,0.00049446,-0.00030473,0.00029
 040,0.00019399,0.00017949,-0.00605566,-0.01093152,0.00005186,-0.008646
 35,-0.01507031,-0.00248026,0.12612790,0.26811435,0.00018923,-0.0003844
 4,0.00014636,-0.00010269,0.00008345,0.00018688,-0.00008307,0.00002917,
 0.00005992,0.00009497,-0.00027438,-0.00000137,-0.00002111,0.00011949,-
 0.00001228,0.00006153,0.00007077,0.00008143,-0.01493829,-0.02448535,-0
 .00116284,0.01343109,0.02093196,0.00221899,0.01048278,0.02084513,0.047
 78156,0.00469812,-0.01192478,-0.01337075,-0.00043085,-0.00232120,0.000
 98680,0.00014584,0.00001849,0.00016042,0.00034264,0.00329745,0.0018153
 1,0.00065789,0.00031573,0.00027564,-0.00138701,-0.00263635,0.00053753,
 -0.00658743,0.00104109,0.00022590,0.00149340,0.00005479,-0.00064648,0.
 00127844,-0.00058020,-0.00005280,0.06965901,0.00670225,-0.01853773,-0.
 02351585,0.00019420,0.00104301,0.00207174,0.00004278,0.00009600,0.0001
 2865,-0.00020023,-0.00171864,0.00049476,-0.00015627,0.00110387,0.00101
 967,-0.00281236,-0.00335592,0.00058443,0.00083254,0.00096168,0.0003977
 0,-0.00006567,-0.00010717,-0.00002295,0.00014001,0.00058423,0.00047791
 ,-0.02595949,0.09616368,-0.00036318,-0.00422925,-0.00477928,-0.0003922
 7,-0.00336271,-0.00155210,-0.00001655,0.00001635,0.00014727,0.00141996
 ,0.00534595,0.00225078,-0.00022681,-0.00049933,0.00115195,-0.00109623,
 0.00107048,-0.00215678,0.00021791,-0.00011943,0.00120279,0.00067805,-0
 .00056052,0.00047083,0.00006277,0.00031087,0.00002415,-0.04978895,0.09
 183533,0.24588610,-0.02415950,0.00006904,-0.00062842,-0.00056220,0.000
 10719,0.00019476,-0.00025914,-0.00003561,0.00003789,0.00041224,-0.0002
 7998,-0.00060851,-0.00014943,-0.00140662,0.00125962,0.00185919,0.00184
 470,-0.00113470,-0.06245938,0.02698525,0.05559234,-0.06674343,0.042297
 54,-0.05181842,-0.11145810,-0.11657886,-0.00995455,-0.01111120,0.00193
 121,0.00080242,0.46679864,-0.03161591,0.00377100,0.00251520,0.00028502
 ,0.00046305,0.00116046,0.00004381,-0.00004375,0.00012908,-0.00054684,0
 .00007032,-0.00019850,-0.00437980,-0.00353086,-0.00348374,0.00037764,0
 .00090433,0.00051680,0.02688068,-0.09743791,-0.10020089,0.04170608,-0.
 13935580,0.11615694,-0.11451686,-0.25032428,-0.01929513,0.01501206,-0.
 00043241,-0.00243891,0.02264941,0.57113301,-0.00364602,-0.00101419,0.0
 0195490,0.00073706,-0.00022421,-0.00195703,0.00030918,0.00021124,-0.00
 009353,-0.00149940,0.00020876,0.00033469,-0.00057612,-0.00030480,0.000
 81918,-0.00059703,0.00123085,-0.00059193,0.05318654,-0.09966511,-0.250
 56063,-0.05121376,0.11530657,-0.19408258,-0.01084252,-0.01937904,-0.04
 858146,0.02860173,-0.00435559,-0.00156774,0.00074220,0.00289920,0.5756
 8123,-0.15246807,-0.09453312,-0.02298985,0.00164019,0.00012198,0.00676
 208,-0.00078809,0.00019259,0.00068875,-0.00050329,0.00005965,-0.001216
 66,-0.01448827,-0.02041709,-0.01612282,0.01172340,0.00689042,0.0137207
 4,-0.00970543,0.00134668,-0.00013311,-0.00420806,-0.00230047,0.0027308
 5,-0.01702272,0.00426972,0.00097017,-0.06382999,0.01934833,0.05761443,
 -0.18157787,0.01819933,0.01709638,0.51382129,-0.07022786,-0.13754461,-
 0.05692972,-0.00437662,-0.01506282,-0.01113452,0.00106091,0.00016260,-
 0.00068469,-0.00081681,0.01374238,0.00694682,0.00667621,0.00367465,0.0
 0833233,-0.01050677,-0.00728208,0.00280477,0.01392042,-0.00264080,0.00
 091680,0.01884257,-0.00402815,-0.00291899,-0.03004628,0.00571387,0.002
 05329,0.01907286,-0.09049849,-0.09067145,0.01286323,-0.08035418,-0.004
 63229,0.01680186,0.42371410,-0.02338958,-0.09396827,-0.05327101,-0.000
 52817,-0.00807607,0.01945918,-0.00011453,0.00019430,0.00228328,-0.0020
 6750,0.01935023,-0.00068087,0.00143132,0.00598749,0.00164043,-0.006908
 35,-0.01567617,0.01452619,0.03086067,-0.00363702,-0.00193300,-0.026380
 71,0.00364814,0.00091594,-0.00264920,0.00080492,-0.00076822,0.04643995
 ,-0.09861466,-0.20099537,0.01853133,-0.00416016,-0.07742227,-0.0133520
 1,0.08095598,0.46975315,0.00198993,0.01515893,0.00098951,0.00768492,-0
 .01613343,-0.01657032,0.00195191,0.00210801,0.00112464,-0.01643584,0.0
 0256457,0.00114927,0.00341580,-0.00200368,0.00890032,0.00119872,0.0013
 7879,-0.00573605,0.00346058,-0.00100150,0.00016238,-0.00825424,0.00274
 485,-0.00162933,0.00377615,-0.00092456,-0.00007727,0.00507113,0.000002
 70,-0.00891156,-0.01058982,0.02590539,-0.03229824,-0.08259310,0.026736
 28,-0.02187322,0.08932387,-0.00198609,-0.02269348,0.02354150,-0.013415
 94,-0.02405870,-0.04327817,0.00196995,-0.00508991,-0.00332126,0.004808
 55,-0.02622841,0.00267026,0.00238841,0.00039237,0.00169789,-0.00225709
 ,0.00204065,-0.01076213,-0.00158345,-0.00076746,-0.00017060,0.00108327
 ,0.00137006,0.00022755,0.00134560,0.00107448,-0.00017186,0.00460953,0.
 01469788,0.00330262,0.00955350,-0.00486252,0.00971862,0.05002010,-0.10
 959649,0.11319129,-0.05653636,0.17372152,0.00382190,0.03154269,-0.0377
 5964,-0.01799937,-0.06225621,-0.01865920,-0.00011326,-0.00424296,-0.00
 092804,0.01277567,0.03334236,0.01465475,-0.00149013,-0.00268347,0.0013
 3278,0.00270878,0.00018788,0.00900206,-0.00124107,0.00029463,0.0022405
 3,0.00034523,0.00030737,0.00117612,0.00039161,-0.00070676,0.00002689,-
 0.01518430,0.02949885,-0.04008262,-0.01301597,0.00639965,-0.00393283,-
 0.04576897,0.06496168,-0.17350743,0.07476987,-0.09664572,0.24643662\\-
 0.00013398,-0.00029374,-0.00135117,0.00016095,0.00026867,0.00135842,-0
 .00000786,0.00000641,-0.00000116,0.00000282,0.00002182,0.00000458,-0.0
 0001518,0.00000267,-0.00000123,0.00000652,-0.00001399,0.00000551,0.000
 00618,0.00002650,0.00007007,-0.00003111,0.00004421,-0.00007001,-0.0000
 1043,-0.00005523,-0.00001115,-0.00000130,0.00000915,0.00000562,0.00003
 392,-0.00001783,-0.00000836,-0.00002452,0.00002065,-0.00003034,0.00001
 400,-0.00001929,0.00002921\\\@


 QUHEN THE CAUSS IS TAKEN AWAY THE EFFECT WANISHETH.
 -- PROVERBS AND REASONS OF THE YEAR 1585
           AS REPRINTED IN PAISLEY MAGAZINE 1828.
 Job cpu time:  0 days  0 hours  8 minutes 48.5 seconds.
 File lengths (MBytes):  RWF=   1248 Int=      0 D2E=      0 Chk=     32 Scr=     32
 Normal termination of Gaussian 09 at Tue Feb 27 15:38:15 2018.
