 Entering Gaussian System, Link 0=g09
 Input=H3O-mid-z-10.gjf
 Output=H3O-mid-z-10.log
 Initial command:
 /share/home/zxchen/g09/l1.exe /scratch/zxchen/Gau-24306.inp -scrdir=/scratch/zxchen/
 Entering Link 1 = /share/home/zxchen/g09/l1.exe PID=     24307.
  
 Copyright (c) 1988,1990,1992,1993,1995,1998,2003,2009,2010,
            Gaussian, Inc.  All Rights Reserved.
  
 This is part of the Gaussian(R) 09 program.  It is based on
 the Gaussian(R) 03 system (copyright 2003, Gaussian, Inc.),
 the Gaussian(R) 98 system (copyright 1998, Gaussian, Inc.),
 the Gaussian(R) 94 system (copyright 1995, Gaussian, Inc.),
 the Gaussian 92(TM) system (copyright 1992, Gaussian, Inc.),
 the Gaussian 90(TM) system (copyright 1990, Gaussian, Inc.),
 the Gaussian 88(TM) system (copyright 1988, Gaussian, Inc.),
 the Gaussian 86(TM) system (copyright 1986, Carnegie Mellon
 University), and the Gaussian 82(TM) system (copyright 1983,
 Carnegie Mellon University). Gaussian is a federally registered
 trademark of Gaussian, Inc.
  
 This software contains proprietary and confidential information,
 including trade secrets, belonging to Gaussian, Inc.
  
 This software is provided under written license and may be
 used, copied, transmitted, or stored only in accord with that
 written license.
  
 The following legend is applicable only to US Government
 contracts under FAR:
  
                    RESTRICTED RIGHTS LEGEND
  
 Use, reproduction and disclosure by the US Government is
 subject to restrictions as set forth in subparagraphs (a)
 and (c) of the Commercial Computer Software - Restricted
 Rights clause in FAR 52.227-19.
  
 Gaussian, Inc.
 340 Quinnipiac St., Bldg. 40, Wallingford CT 06492
  
  
 ---------------------------------------------------------------
 Warning -- This program may not be used in any manner that
 competes with the business of Gaussian, Inc. or will provide
 assistance to any competitor of Gaussian, Inc.  The licensee
 of this program is prohibited from giving any competitor of
 Gaussian, Inc. access to this program.  By using this program,
 the user acknowledges that Gaussian, Inc. is engaged in the
 business of creating and licensing software in the field of
 computational chemistry and represents and warrants to the
 licensee that it is not a competitor of Gaussian, Inc. and that
 it will not use this program in any manner prohibited above.
 ---------------------------------------------------------------
  

 Cite this work as:
 Gaussian 09, Revision B.01,
 M. J. Frisch, G. W. Trucks, H. B. Schlegel, G. E. Scuseria, 
 M. A. Robb, J. R. Cheeseman, G. Scalmani, V. Barone, B. Mennucci, 
 G. A. Petersson, H. Nakatsuji, M. Caricato, X. Li, H. P. Hratchian, 
 A. F. Izmaylov, J. Bloino, G. Zheng, J. L. Sonnenberg, M. Hada, 
 M. Ehara, K. Toyota, R. Fukuda, J. Hasegawa, M. Ishida, T. Nakajima, 
 Y. Honda, O. Kitao, H. Nakai, T. Vreven, J. A. Montgomery, Jr., 
 J. E. Peralta, F. Ogliaro, M. Bearpark, J. J. Heyd, E. Brothers, 
 K. N. Kudin, V. N. Staroverov, T. Keith, R. Kobayashi, J. Normand, 
 K. Raghavachari, A. Rendell, J. C. Burant, S. S. Iyengar, J. Tomasi, 
 M. Cossi, N. Rega, J. M. Millam, M. Klene, J. E. Knox, J. B. Cross, 
 V. Bakken, C. Adamo, J. Jaramillo, R. Gomperts, R. E. Stratmann, 
 O. Yazyev, A. J. Austin, R. Cammi, C. Pomelli, J. W. Ochterski, 
 R. L. Martin, K. Morokuma, V. G. Zakrzewski, G. A. Voth, 
 P. Salvador, J. J. Dannenberg, S. Dapprich, A. D. Daniels, 
 O. Farkas, J. B. Foresman, J. V. Ortiz, J. Cioslowski, 
 and D. J. Fox, Gaussian, Inc., Wallingford CT, 2010.
 
 ******************************************
 Gaussian 09:  EM64L-G09RevB.01 12-Aug-2010
                27-Feb-2018 
 ******************************************
 %chk=H3O-mid-field.chk
 %nprocshared=24
 Will use up to   24 processors via shared memory.
 ----------------------------------------------------------------------
 # opt=(z-matrix,ts,calcfc,noeigen,maxcycle=300) nosymm field=z-10 freq
  rb3lyp/6-31++g(d,p)
 ----------------------------------------------------------------------
 1/5=1,6=300,10=4,11=1,14=-1,18=40,26=3,38=1/1,3;
 2/12=2,15=1,17=6,18=5,29=3,40=1/2;
 3/5=1,6=6,7=1111,11=2,14=3,15=-10,16=1,25=1,30=1,71=2,74=-5,116=1/1,2,3;
 4//1;
 5/5=2,38=5/2;
 8/6=4,10=90,11=11/1;
 11/6=1,8=1,9=11,15=111,16=1,31=1/1,2,10;
 10/6=1,7=6,13=1,31=1/2;
 6/7=2,8=2,9=2,10=2,28=1/1;
 7/10=1,18=20,25=1,30=1/1,2,3,16;
 1/5=1,6=300,10=4,11=1,14=-1,18=40/3(2);
 2/15=1,29=3/2;
 99//99;
 2/15=1,29=3/2;
 3/5=1,6=6,7=1111,11=2,14=3,15=-10,16=1,25=1,30=1,71=1,74=-5,116=1/1,2,3;
 4/5=5,16=3/1;
 5/5=2,38=5/2;
 7/30=1/1,2,3,16;
 1/5=1,6=300,11=1,14=-1,18=40/3(-5);
 2/15=1,29=3/2;
 6/7=2,8=2,9=2,10=2,19=2,28=1/1;
 99/9=1/99;
 -------------
 H3O-BACK-MIDM
 -------------
 Symbolic Z-matrix:
 Charge =  1 Multiplicity = 1
 C
 O                    1     2.34824 
 H                    1    B1       2    A1
 H                    1    B2       2    A2       3    D1       0
 H                    2    B3       1    A3       4    D2       0
 H                    2    B4       1    A4       4    D3       0
 H                    1    B5       2    A5       5    D4       0
 H                    1    B6       2    A6       5    D5       0
 H                    1    B7       2    A7       5    D6       0
 H                    1    B8       2    A8       5    D7       0
 H                    1    B9       2    A9       5    D8       0
 C                    1    B10      2    A10      5    D9       0
 C                    1    B11      12   A11      2    D10      0
 O                    12   B12      1    A12      13   D11      0
       Variables:
  B1                    2.17681                  
  B2                    2.17328                  
  B3                    0.96                     
  B4                    0.96                     
  B5                    1.07                     
  B6                    2.475                    
  B7                    2.08329                  
  B8                    2.13489                  
  B9                    2.07075                  
  B10                   1.47047                  
  B11                   1.47109                  
  B12                   1.45946                  
  A1                   80.04289                  
  A2                   89.88044                  
  A3                  125.5523                   
  A4                  126.14026                  
  A5                   85.38166                  
  A6                  134.8851                   
  A7                  125.11844                  
  A8                   98.05652                  
  A9                   76.72068                  
  A10                  94.14974                  
  A11                 124.19281                  
  A12                  83.23699                  
  D1                   47.63161                  
  D2                  -67.19469                  
  D3                  131.4423                   
  D4                  150.88999                  
  D5                 -134.44255                  
  D6                   50.10685                  
  D7                    5.33915                  
  D8                   50.26192                  
  D9                  -92.94884                  
  D10                -105.8252                   
  D11                  83.58317                  
 

 GradGradGradGradGradGradGradGradGradGradGradGradGradGradGradGradGradGrad
 Berny optimization.
 Initialization pass.
                       ----------------------------
                       !    Initial Parameters    !
                       ! (Angstroms and Degrees)  !
 ----------------------                            ----------------------
 !      Name          Value   Derivative information (Atomic Units)     !
 ------------------------------------------------------------------------
 !       B1          2.1768   calculate D2E/DX2 analytically            !
 !       B2          2.1733   calculate D2E/DX2 analytically            !
 !       B3          0.96     calculate D2E/DX2 analytically            !
 !       B4          0.96     calculate D2E/DX2 analytically            !
 !       B5          1.07     calculate D2E/DX2 analytically            !
 !       B6          2.475    calculate D2E/DX2 analytically            !
 !       B7          2.0833   calculate D2E/DX2 analytically            !
 !       B8          2.1349   calculate D2E/DX2 analytically            !
 !       B9          2.0708   calculate D2E/DX2 analytically            !
 !       B10         1.4705   calculate D2E/DX2 analytically            !
 !       B11         1.4711   calculate D2E/DX2 analytically            !
 !       B12         1.4595   calculate D2E/DX2 analytically            !
 !       A1         80.0429   calculate D2E/DX2 analytically            !
 !       A2         89.8804   calculate D2E/DX2 analytically            !
 !       A3        125.5523   calculate D2E/DX2 analytically            !
 !       A4        126.1403   calculate D2E/DX2 analytically            !
 !       A5         85.3817   calculate D2E/DX2 analytically            !
 !       A6        134.8851   calculate D2E/DX2 analytically            !
 !       A7        125.1184   calculate D2E/DX2 analytically            !
 !       A8         98.0565   calculate D2E/DX2 analytically            !
 !       A9         76.7207   calculate D2E/DX2 analytically            !
 !       A10        94.1497   calculate D2E/DX2 analytically            !
 !       A11       124.1928   calculate D2E/DX2 analytically            !
 !       A12        83.237    calculate D2E/DX2 analytically            !
 !       D1         47.6316   calculate D2E/DX2 analytically            !
 !       D2        -67.1947   calculate D2E/DX2 analytically            !
 !       D3        131.4423   calculate D2E/DX2 analytically            !
 !       D4        150.89     calculate D2E/DX2 analytically            !
 !       D5       -134.4425   calculate D2E/DX2 analytically            !
 !       D6         50.1068   calculate D2E/DX2 analytically            !
 !       D7          5.3391   calculate D2E/DX2 analytically            !
 !       D8         50.2619   calculate D2E/DX2 analytically            !
 !       D9        -92.9488   calculate D2E/DX2 analytically            !
 !       D10      -105.8252   calculate D2E/DX2 analytically            !
 !       D11        83.5832   calculate D2E/DX2 analytically            !
 ------------------------------------------------------------------------
 Trust Radius=3.00D-01 FncErr=1.00D-07 GrdErr=1.00D-06
 Number of steps in this run=    100 maximum allowed number of steps=    100.
 Search for a saddle point of order  1.
 GradGradGradGradGradGradGradGradGradGradGradGradGradGradGradGradGradGrad

 ---------------------------------------------------------------------------------------------------
                            Z-MATRIX (ANGSTROMS AND DEGREES)
   CD    Cent   Atom    N1       Length/X        N2       Alpha/Y        N3        Beta/Z          J
 ---------------------------------------------------------------------------------------------------
      1      1  C 
      2      2  O        1   2.348235(     1)
      3      3  H        1   2.176815(     2)      2   80.043(    14)
      4      4  H        1   2.173279(     3)      2   89.880(    15)      3   47.632(    26)      0
      5      5  H        2   0.960000(     4)      1  125.552(    16)      4  -67.195(    27)      0
      6      6  H        2   0.960000(     5)      1  126.140(    17)      4  131.442(    28)      0
      7      7  H        1   1.070000(     6)      2   85.382(    18)      5  150.890(    29)      0
      8      8  H        1   2.475000(     7)      2  134.885(    19)      5 -134.443(    30)      0
      9      9  H        1   2.083290(     8)      2  125.118(    20)      5   50.107(    31)      0
     10     10  H        1   2.134888(     9)      2   98.057(    21)      5    5.339(    32)      0
     11     11  H        1   2.070753(    10)      2   76.721(    22)      5   50.262(    33)      0
     12     12  C        1   1.470465(    11)      2   94.150(    23)      5  -92.949(    34)      0
     13     13  C        1   1.471092(    12)     12  124.193(    24)      2 -105.825(    35)      0
     14     14  O       12   1.459460(    13)      1   83.237(    25)     13   83.583(    36)      0
 ---------------------------------------------------------------------------------------------------
                         Z-Matrix orientation:                         
 ---------------------------------------------------------------------
 Center     Atomic      Atomic             Coordinates (Angstroms)
 Number     Number       Type             X           Y           Z
 ---------------------------------------------------------------------
      1          6           0        0.000000    0.000000    0.000000
      2          8           0        0.000000    0.000000    2.348235
      3          1           0        2.144027    0.000000    0.376395
      4          1           0        1.464558   -1.605674    0.004535
      5          1           0       -0.327935   -0.708862    2.906423
      6          1           0        0.083585    0.770754    2.914408
      7          1           0       -0.079664    1.063546    0.086154
      8          1           0        1.651821    0.588715   -1.746576
      9          1           0       -1.645477   -0.442963   -1.198451
     10          1           0       -1.062190   -1.827560   -0.299204
     11          1           0       -1.947513   -0.518622    0.475649
     12          6           0        1.360989   -0.546493   -0.106408
     13          6           0       -1.223685   -0.770190   -0.271135
     14          8           0        1.194182   -0.224208   -1.520031
 ---------------------------------------------------------------------
                    Distance matrix (angstroms):
                    1          2          3          4          5
     1  C    0.000000
     2  O    2.348235   0.000000
     3  H    2.176815   2.912903   0.000000
     4  H    2.173279   3.196256   1.782736   0.000000
     5  H    3.009538   0.960000   3.607509   3.526792   0.000000
     6  H    3.015763   0.960000   3.358719   4.002732   1.535798
     7  H    1.070000   2.500897   2.481970   3.084805   3.340207
     8  H    2.475000   4.454500   2.257401   2.813680   5.220492
     9  H    2.083290   3.934818   4.127553   3.531486   4.319330
    10  H    2.134888   3.387795   3.751831   2.554594   3.473710
    11  H    2.070753   2.751064   4.125472   3.611906   2.927095
    12  C    1.470465   2.859409   1.070000   1.070000   3.457742
    13  C    1.471092   2.991939   3.514822   2.828548   3.301970
    14  O    1.945979   4.054605   2.132817   2.075055   4.705871
                    6          7          8          9         10
     6  H    0.000000
     7  H    2.848052   0.000000
     8  H    4.921105   2.565620   0.000000
     9  H    4.623676   2.524193   3.498138   0.000000
    10  H    4.288513   3.077719   3.911409   1.750993   0.000000
    11  H    3.425697   2.478674   4.372606   1.702810   1.759975
    12  C    3.534435   2.169053   2.015795   3.200331   2.747745
    13  C    3.772420   2.190668   3.506006   1.070000   1.070000
    14  O    4.678421   2.420914   0.960000   2.866170   3.025288
                   11         12         13         14
    11  H    0.000000
    12  C    3.359428   0.000000
    13  C    1.070000   2.599561   0.000000
    14  O    3.733586   1.459460   2.775593   0.000000
 Symmetry turned off by external request.
 Stoichiometry    C3H9O2(1+)
 Framework group  C1[X(C3H9O2)]
 Deg. of freedom    36
 Full point group                 C1      NOp   1
 Rotational constants (GHZ):      6.6217710      2.9684410      2.2597156
 Standard basis: 6-31++G(d,p) (6D, 7F)
 The following finite field(s) will be applied:
 An electric field of              0.0000  0.0000 -0.0010
 Integral buffers will be    131072 words long.
 Raffenetti 2 integral format.
 Two-electron integral symmetry is turned off.
   149 basis functions,   232 primitive gaussians,   149 cartesian basis functions
    21 alpha electrons       21 beta electrons
       nuclear repulsion energy       192.7382409738 Hartrees.
 NAtoms=   14 NActive=   14 NUniq=   14 SFac= 1.00D+00 NAtFMM=   50 NAOKFM=F Big=F
 One-electron integrals computed using PRISM.
 PrsmSu:  requested number of processors reduced to:  10 ShMem   1 Linda.
 NBasis=   149 RedAO= T  NBF=   149
 NBsUse=   149 1.00D-06 NBFU=   149
 The nuclear repulsion energy is now       192.7233504831 hartrees.
 Harris functional with IExCor=  402 diagonalized for initial guess.
 ExpMin= 3.60D-02 ExpMax= 5.48D+03 ExpMxC= 8.25D+02 IAcc=3 IRadAn=         0 AccDes= 0.00D+00
 HarFok:  IExCor=  402 AccDes= 0.00D+00 IRadAn=         0 IDoV= 1
 ScaDFX=  1.000000  1.000000  1.000000  1.000000
 FoFCou: FMM=F IPFlag=           0 FMFlag=      100000 FMFlg1=           0
         NFxFlg=           0 DoJE=T BraDBF=F KetDBF=T FulRan=T
         Omega=  0.000000  0.000000  1.000000  0.000000  0.000000 ICntrl=     500 IOpCl=  0
         NMat0=    1 NMatS0=    1 NMatT0=    0 NMatD0=    1 NMtDS0=    0 NMtDT0=    0
         I1Cent=           4 NGrid=           0.
 Symmetry not used in FoFCou.
 Requested convergence on RMS density matrix=1.00D-08 within 128 cycles.
 Requested convergence on MAX density matrix=1.00D-06.
 Requested convergence on             energy=1.00D-06.
 No special actions if energy rises.
 SCF Done:  E(RB3LYP) =  -269.890006402     A.U. after   12 cycles
             Convg  =    0.6099D-08             -V/T =  2.0087
 Range of M.O.s used for correlation:     1   149
 NBasis=   149 NAE=    21 NBE=    21 NFC=     0 NFV=     0
 NROrb=    149 NOA=    21 NOB=    21 NVA=   128 NVB=   128

 **** Warning!!: The largest alpha MO coefficient is  0.46379958D+02

 PrsmSu:  requested number of processors reduced to:  10 ShMem   1 Linda.
 PrsmSu:  requested number of processors reduced to:  17 ShMem   1 Linda.
 Symmetrizing basis deriv contribution to polar:
 IMax=3 JMax=2 DiffMx= 0.00D+00
 G2DrvN: will do     3 centers at a time, making    5 passes doing MaxLOS=2.
 Estimated number of processors is:   15
 Calling FoFCou, ICntrl=  3107 FMM=F I1Cent=   0 AccDes= 0.00D+00.
 CoulSu:  requested number of processors reduced to:  15 ShMem   1 Linda.
 Calling FoFCou, ICntrl=  3107 FMM=F I1Cent=   0 AccDes= 0.00D+00.
 CoulSu:  requested number of processors reduced to:  15 ShMem   1 Linda.
 Calling FoFCou, ICntrl=  3107 FMM=F I1Cent=   0 AccDes= 0.00D+00.
 CoulSu:  requested number of processors reduced to:  15 ShMem   1 Linda.
 Calling FoFCou, ICntrl=  3107 FMM=F I1Cent=   0 AccDes= 0.00D+00.
 CoulSu:  requested number of processors reduced to:  15 ShMem   1 Linda.
 Calling FoFCou, ICntrl=  3107 FMM=F I1Cent=   0 AccDes= 0.00D+00.
 CoulSu:  requested number of processors reduced to:  15 ShMem   1 Linda.
 FoFDir/FoFCou used for L=0 through L=2.
 End of G2Drv Frequency-dependent properties file   721 does not exist.
 End of G2Drv Frequency-dependent properties file   722 does not exist.
          IDoAtm=11111111111111
          Differentiating once with respect to nuclear coordinates.
 PrRfSu:  requested number of processors reduced to:  16 ShMem   1 Linda.
 CalDSu:  requested number of processors reduced to:  21 ShMem   1 Linda.
 PrRfSu:  requested number of processors reduced to:  16 ShMem   1 Linda.
 CalDSu:  requested number of processors reduced to:  21 ShMem   1 Linda.
          There are    45 degrees of freedom in the 1st order CPHF.  IDoFFX=5.
     39 vectors produced by pass  0 Test12= 5.97D-11 2.22D-07 XBig12= 1.11D-01 1.59D-01.
 AX will form    20 AO Fock derivatives at one time.
 PrRfSu:  requested number of processors reduced to:  16 ShMem   1 Linda.
 CalDSu:  requested number of processors reduced to:  22 ShMem   1 Linda.
 PrRfSu:  requested number of processors reduced to:  16 ShMem   1 Linda.
 CalDSu:  requested number of processors reduced to:  22 ShMem   1 Linda.
     39 vectors produced by pass  1 Test12= 5.97D-11 2.22D-07 XBig12= 1.58D-02 4.07D-02.
 PrRfSu:  requested number of processors reduced to:  16 ShMem   1 Linda.
 CalDSu:  requested number of processors reduced to:  22 ShMem   1 Linda.
 PrRfSu:  requested number of processors reduced to:  16 ShMem   1 Linda.
 CalDSu:  requested number of processors reduced to:  22 ShMem   1 Linda.
     39 vectors produced by pass  2 Test12= 5.97D-11 2.22D-07 XBig12= 5.23D-05 1.40D-03.
 PrRfSu:  requested number of processors reduced to:  16 ShMem   1 Linda.
 CalDSu:  requested number of processors reduced to:  22 ShMem   1 Linda.
 PrRfSu:  requested number of processors reduced to:  16 ShMem   1 Linda.
 CalDSu:  requested number of processors reduced to:  22 ShMem   1 Linda.
     39 vectors produced by pass  3 Test12= 5.97D-11 2.22D-07 XBig12= 1.51D-07 6.00D-05.
 PrRfSu:  requested number of processors reduced to:  16 ShMem   1 Linda.
 CalDSu:  requested number of processors reduced to:  22 ShMem   1 Linda.
 PrRfSu:  requested number of processors reduced to:  16 ShMem   1 Linda.
 CalDSu:  requested number of processors reduced to:  22 ShMem   1 Linda.
     10 vectors produced by pass  4 Test12= 5.97D-11 2.22D-07 XBig12= 1.76D-10 1.67D-06.
 PrRfSu:  requested number of processors reduced to:  17 ShMem   1 Linda.
 Inverted reduced A of dimension   166 with in-core refinement.
 End of Minotr Frequency-dependent properties file   721 does not exist.
 End of Minotr Frequency-dependent properties file   722 does not exist.

 **********************************************************************

            Population analysis using the SCF density.

 **********************************************************************

 Alpha  occ. eigenvalues --  -19.40920 -19.35414 -10.49770 -10.45199 -10.37504
 Alpha  occ. eigenvalues --   -1.27195  -1.20775  -1.01152  -0.91440  -0.80907
 Alpha  occ. eigenvalues --   -0.75196  -0.72643  -0.68241  -0.66920  -0.62526
 Alpha  occ. eigenvalues --   -0.60790  -0.58257  -0.58130  -0.56767  -0.52098
 Alpha  occ. eigenvalues --   -0.50705
 Alpha virt. eigenvalues --   -0.27449  -0.16867  -0.15189  -0.12377  -0.11853
 Alpha virt. eigenvalues --   -0.10799  -0.09078  -0.08616  -0.07904  -0.07399
 Alpha virt. eigenvalues --   -0.06297  -0.04715  -0.03978  -0.02705  -0.01442
 Alpha virt. eigenvalues --   -0.01024  -0.00689   0.00128   0.00704   0.01565
 Alpha virt. eigenvalues --    0.02560   0.03323   0.03936   0.04402   0.04705
 Alpha virt. eigenvalues --    0.05553   0.05900   0.07524   0.08063   0.08699
 Alpha virt. eigenvalues --    0.09325   0.11635   0.12347   0.14179   0.15182
 Alpha virt. eigenvalues --    0.15520   0.16991   0.19448   0.20142   0.24235
 Alpha virt. eigenvalues --    0.25015   0.26915   0.42415   0.48386   0.50945
 Alpha virt. eigenvalues --    0.53808   0.56413   0.58219   0.60556   0.61234
 Alpha virt. eigenvalues --    0.67320   0.75775   0.77528   0.79996   0.81259
 Alpha virt. eigenvalues --    0.81872   0.82838   0.87096   0.89379   0.92171
 Alpha virt. eigenvalues --    0.96374   0.98880   1.01101   1.01923   1.03215
 Alpha virt. eigenvalues --    1.06467   1.08151   1.12362   1.14118   1.22056
 Alpha virt. eigenvalues --    1.23869   1.31234   1.33261   1.34948   1.41909
 Alpha virt. eigenvalues --    1.43184   1.47454   1.53041   1.57294   1.60844
 Alpha virt. eigenvalues --    1.68073   1.71144   1.74736   1.82093   1.86353
 Alpha virt. eigenvalues --    1.88476   1.92515   1.96782   1.99001   2.03612
 Alpha virt. eigenvalues --    2.07173   2.10187   2.12356   2.13527   2.17576
 Alpha virt. eigenvalues --    2.20237   2.25058   2.29090   2.34180   2.37644
 Alpha virt. eigenvalues --    2.39026   2.42394   2.47043   2.47733   2.49811
 Alpha virt. eigenvalues --    2.50625   2.55968   2.66324   2.68542   2.71160
 Alpha virt. eigenvalues --    2.72185   2.77500   2.81784   2.87525   3.12545
 Alpha virt. eigenvalues --    3.15641   3.22224   3.27845   3.29687   3.31255
 Alpha virt. eigenvalues --    3.32977   3.37057   3.39473   4.06446   4.12544
 Alpha virt. eigenvalues --    4.21030   4.32222   4.45752
          Condensed to atoms (all electrons):
              1          2          3          4          5          6
     1  C    6.714177  -0.057640  -0.023217  -0.069970   0.025726   0.006150
     2  O   -0.057640   8.191945   0.010854   0.000195   0.286484   0.281012
     3  H   -0.023217   0.010854   0.526682  -0.035691  -0.000895  -0.001160
     4  H   -0.069970   0.000195  -0.035691   0.465473  -0.000409   0.000108
     5  H    0.025726   0.286484  -0.000895  -0.000409   0.322396  -0.016851
     6  H    0.006150   0.281012  -0.001160   0.000108  -0.016851   0.317665
     7  H    0.349879  -0.017183  -0.024632   0.007376   0.003122   0.000899
     8  H   -0.004557  -0.000018  -0.019103   0.009411  -0.000289   0.000205
     9  H   -0.041662   0.004974  -0.000299   0.002481  -0.000399  -0.000029
    10  H   -0.045794  -0.004141  -0.000571   0.003841   0.000672   0.000182
    11  H   -0.123065   0.000913   0.002414  -0.003833  -0.000602   0.000334
    12  C   -0.308161  -0.052797   0.329747   0.445513  -0.007783   0.000264
    13  C   -0.382432   0.048623   0.030788  -0.018752  -0.009793  -0.002858
    14  O   -0.240256   0.014036  -0.005955  -0.037468  -0.000767   0.000643
              7          8          9         10         11         12
     1  C    0.349879  -0.004557  -0.041662  -0.045794  -0.123065  -0.308161
     2  O   -0.017183  -0.000018   0.004974  -0.004141   0.000913  -0.052797
     3  H   -0.024632  -0.019103  -0.000299  -0.000571   0.002414   0.329747
     4  H    0.007376   0.009411   0.002481   0.003841  -0.003833   0.445513
     5  H    0.003122  -0.000289  -0.000399   0.000672  -0.000602  -0.007783
     6  H    0.000899   0.000205  -0.000029   0.000182   0.000334   0.000264
     7  H    0.521752   0.002445  -0.005669   0.008795  -0.016405   0.006875
     8  H    0.002445   0.347835   0.000730   0.000484  -0.000201  -0.001562
     9  H   -0.005669   0.000730   0.447318  -0.017908  -0.015505   0.006793
    10  H    0.008795   0.000484  -0.017908   0.465920  -0.023660  -0.001781
    11  H   -0.016405  -0.000201  -0.015505  -0.023660   0.453964   0.020185
    12  C    0.006875  -0.001562   0.006793  -0.001781   0.020185   5.365522
    13  C   -0.054943  -0.014485   0.392293   0.401415   0.470554   0.122889
    14  O   -0.032014   0.254754  -0.003039  -0.003960   0.004985   0.208999
             13         14
     1  C   -0.382432  -0.240256
     2  O    0.048623   0.014036
     3  H    0.030788  -0.005955
     4  H   -0.018752  -0.037468
     5  H   -0.009793  -0.000767
     6  H   -0.002858   0.000643
     7  H   -0.054943  -0.032014
     8  H   -0.014485   0.254754
     9  H    0.392293  -0.003039
    10  H    0.401415  -0.003960
    11  H    0.470554   0.004985
    12  C    0.122889   0.208999
    13  C    5.500015   0.096489
    14  O    0.096489   8.128602
 Mulliken atomic charges:
              1
     1  C    0.200822
     2  O   -0.707258
     3  H    0.211038
     4  H    0.231725
     5  H    0.399389
     6  H    0.413439
     7  H    0.249702
     8  H    0.424352
     9  H    0.229921
    10  H    0.216506
    11  H    0.229922
    12  C   -0.134704
    13  C   -0.579804
    14  O   -0.385049
 Sum of Mulliken atomic charges =   1.00000
 Mulliken charges with hydrogens summed into heavy atoms:
              1
     1  C    0.450524
     2  O    0.105570
    12  C    0.308059
    13  C    0.096544
    14  O    0.039303
 Sum of Mulliken charges with hydrogens summed into heavy atoms =   1.00000
 APT atomic charges:
              1
     1  C   -0.053988
     2  O   -1.513068
     3  H    0.493021
     4  H    0.510437
     5  H    0.799193
     6  H    0.807229
     7  H    0.408074
     8  H    0.714425
     9  H    0.470297
    10  H    0.467991
    11  H    0.471145
    12  C   -0.593320
    13  C   -1.279987
    14  O   -0.701448
 Sum of APT charges=   1.00000
 APT Atomic charges with hydrogens summed into heavy atoms:
              1
     1  C    0.354086
     2  O    0.093353
     3  H    0.000000
     4  H    0.000000
     5  H    0.000000
     6  H    0.000000
     7  H    0.000000
     8  H    0.000000
     9  H    0.000000
    10  H    0.000000
    11  H    0.000000
    12  C    0.410138
    13  C    0.129446
    14  O    0.012977
 Sum of APT charges=   1.00000
 Electronic spatial extent (au):  <R**2>=            574.5117
 Charge=              1.0000 electrons
 Dipole moment (field-independent basis, Debye):
    X=              1.2779    Y=              0.2511    Z=              2.8320  Tot=              3.1171
 Quadrupole moment (field-independent basis, Debye-Ang):
   XX=            -20.8656   YY=            -24.0262   ZZ=            -14.8737
   XY=              3.0156   XZ=             -2.9284   YZ=             -2.0264
 Traceless Quadrupole moment (field-independent basis, Debye-Ang):
   XX=             -0.9438   YY=             -4.1043   ZZ=              5.0481
   XY=              3.0156   XZ=             -2.9284   YZ=             -2.0264
 Octapole moment (field-independent basis, Debye-Ang**2):
  XXX=            -11.5503  YYY=             25.2077  ZZZ=             34.7549  XYY=             -4.6719
  XXY=              9.6333  XXZ=            -10.9814  XZZ=             -8.6676  YZZ=             16.3789
  YYZ=              0.9266  XYZ=             -2.4935
 Hexadecapole moment (field-independent basis, Debye-Ang**3):
 XXXX=           -199.0810 YYYY=            -73.4275 ZZZZ=           -172.4933 XXXY=              4.2724
 XXXZ=             18.2888 YYYX=             -3.6110 YYYZ=             -9.5273 ZZZX=              6.0927
 ZZZY=            -16.8029 XXYY=            -47.2128 XXZZ=            -87.0903 YYZZ=            -51.7213
 XXYZ=            -10.9512 YYXZ=              6.6022 ZZXY=             15.3915
 N-N= 1.927233504831D+02 E-N=-1.007320203351D+03  KE= 2.675683256631D+02
  Exact polarizability:   0.000   0.000   0.000   0.000   0.000   0.000
 Approx polarizability:  62.781   1.516  53.072  -9.071   0.469  71.258
 PrsmSu:  requested number of processors reduced to:  10 ShMem   1 Linda.
 PrsmSu:  requested number of processors reduced to:  10 ShMem   1 Linda.
 Calling FoFJK, ICntrl=    100147 FMM=F ISym2X=0 I1Cent= 0 IOpClX= 0 NMat=1 NMatS=1 NMatT=0.
 CoulSu:  requested number of processors reduced to:  10 ShMem   1 Linda.
 CalDSu:  requested number of processors reduced to:  23 ShMem   1 Linda.
 -------------------------------------------------------------------
 Center     Atomic                   Forces (Hartrees/Bohr)
 Number     Number              X              Y              Z
 -------------------------------------------------------------------
      1        6           0.001340291   -0.011825603    0.000295554
      2        8           0.002005380   -0.000483863   -0.010162914
      3        1           0.009337507    0.006935373    0.005650860
      4        1           0.001025752   -0.012914516    0.001306251
      5        1          -0.002916892   -0.006619624    0.004803573
      6        1           0.000910675    0.007106256    0.004833327
      7        1          -0.000858876    0.012519900    0.001104006
      8        1           0.006378458    0.011346932   -0.003007793
      9        1          -0.007375480    0.006126381   -0.016966075
     10        1           0.002563802   -0.014412581   -0.000177852
     11        1          -0.012313089    0.004305084    0.013258795
     12        6          -0.010229663    0.005407859   -0.006108090
     13        6           0.016365284    0.003447390    0.003849164
     14        8          -0.006233148   -0.010938989    0.002321196
 -------------------------------------------------------------------
 Cartesian Forces:  Max     0.016966075 RMS     0.007932729
 -----------------------------------------------------------------------------------------------
                       Internal Coordinate Forces (Hartree/Bohr or radian)
  Cent   Atom   N1       Length/X         N2         Alpha/Y        N3         Beta/Z          J
 -----------------------------------------------------------------------------------------------
      1  C 
      2  O        1  -0.000526(     1)
      3  H        1   0.010174(     2)      2  -0.016254(    14)
      4  H        1   0.010236(     3)      2  -0.005277(    15)      3   0.027961(    26)     0
      5  H        2   0.008677(     4)      1  -0.000539(    16)      4   0.004873(    27)     0
      6  H        2   0.008635(     5)      1  -0.000583(    17)      4  -0.000204(    28)     0
      7  H        1   0.012597(     6)      2  -0.000182(    18)      5   0.000159(    29)     0
      8  H        1   0.009079(     7)      2  -0.022436(    19)      5  -0.028323(    30)     0
      9  H        1   0.014283(     8)      2   0.042111(    20)      5   0.025224(    31)     0
     10  H        1   0.011087(     9)      2  -0.005607(    21)      5  -0.037784(    32)     0
     11  H        1   0.013548(    10)      2  -0.040797(    22)      5   0.027911(    33)     0
     12  C        1  -0.012908(    11)      2   0.017971(    23)      5   0.008136(    34)     0
     13  C        1  -0.016127(    12)     12  -0.015204(    24)      2   0.037611(    35)     0
     14  O       12  -0.003951(    13)      1  -0.006490(    25)     13  -0.032722(    36)     0
 -----------------------------------------------------------------------------------------------
 Internal  Forces:  Max     0.042111490 RMS     0.019304705

 GradGradGradGradGradGradGradGradGradGradGradGradGradGradGradGradGradGrad
 Berny optimization.
 Search for a saddle point.
 Step number   1 out of a maximum of  100
 All quantities printed in internal units (Hartrees-Bohrs-Radians)
 Swaping is turned off.
 Second derivative matrix not updated -- analytic derivatives used.
 ITU=  0
     Eigenvalues ---   -0.08510  -0.00434   0.00027   0.00344   0.01045
     Eigenvalues ---    0.01833   0.03414   0.03990   0.05324   0.06064
     Eigenvalues ---    0.06845   0.07292   0.07532   0.09499   0.12457
     Eigenvalues ---    0.20390   0.28834   0.29530   0.31177   0.40242
     Eigenvalues ---    0.48478   0.51576   0.56430   0.56508   0.68000
     Eigenvalues ---    0.97235   1.20835   1.34334   1.44159   2.85617
     Eigenvalues ---    3.43441   6.58135   7.15833  12.58849  20.37413
 Eigenvectors required to have negative eigenvalues:
                          D6        A8        D8        A7        A9
   1                    0.55190   0.49300  -0.46317  -0.32839  -0.32244
                          B7        B9        D7        A12       A5
   1                    0.07266  -0.07146  -0.06500  -0.06084  -0.05416
 RFO step:  Lambda0=1.982682479D-08 Lambda=-4.81106379D-03.
 Linear search not attempted -- option 19 set.
 Maximum step size (   0.300) exceeded in Quadratic search.
    -- Step size scaled by   0.398
 Variable       Old X    -DE/DX   Delta X   Delta X   Delta X     New X
                                 (Linear)    (Quad)   (Total)
    B1        4.11358   0.01017   0.00000   0.01270   0.01270   4.12629
    B2        4.10690   0.01024   0.00000  -0.00941  -0.00941   4.09749
    B3        1.81414   0.00868   0.00000   0.00622   0.00622   1.82036
    B4        1.81414   0.00864   0.00000   0.00620   0.00620   1.82034
    B5        2.02201   0.01260   0.00000   0.01105   0.01105   2.03306
    B6        4.67707   0.00908   0.00000   0.04928   0.04928   4.72636
    B7        3.93685   0.01428   0.00000   0.00562   0.00562   3.94247
    B8        4.03435   0.01109   0.00000   0.00827   0.00827   4.04262
    B9        3.91316   0.01355   0.00000   0.00705   0.00705   3.92021
   B10        2.77878  -0.01291   0.00000   0.00970   0.00970   2.78848
   B11        2.77996  -0.01613   0.00000  -0.01009  -0.01009   2.76987
   B12        2.75798  -0.00395   0.00000  -0.01766  -0.01766   2.74032
    A1        1.39701  -0.01625   0.00000  -0.06094  -0.06094   1.33608
    A2        1.56871  -0.00528   0.00000   0.10064   0.10064   1.66935
    A3        2.19130  -0.00054   0.00000   0.00900   0.00900   2.20031
    A4        2.20156  -0.00058   0.00000  -0.01534  -0.01534   2.18623
    A5        1.49019  -0.00018   0.00000  -0.07549  -0.07549   1.41470
    A6        2.35419  -0.02244   0.00000  -0.12475  -0.12475   2.22944
    A7        2.18373   0.04211   0.00000   0.05635   0.05635   2.24007
    A8        1.71141  -0.00561   0.00000   0.05253   0.05253   1.76394
    A9        1.33903  -0.04080   0.00000   0.05193   0.05193   1.39096
   A10        1.64322   0.01797   0.00000   0.03036   0.03036   1.67358
   A11        2.16757  -0.01520   0.00000  -0.00042  -0.00042   2.16715
   A12        1.45276  -0.00649   0.00000   0.06091   0.06091   1.51367
    D1        0.83133   0.02796   0.00000  -0.03123  -0.03123   0.80010
    D2       -1.17277   0.00487   0.00000   0.02776   0.02776  -1.14501
    D3        2.29410  -0.00020   0.00000   0.04533   0.04533   2.33943
    D4        2.63353   0.00016   0.00000   0.01316   0.01316   2.64669
    D5       -2.34647  -0.02832   0.00000  -0.11835  -0.11835  -2.46482
    D6        0.87453   0.02522   0.00000   0.04522   0.04522   0.91975
    D7        0.09319  -0.03778   0.00000   0.01992   0.01992   0.11311
    D8        0.87724   0.02791   0.00000   0.02605   0.02605   0.90329
    D9       -1.62226   0.00814   0.00000   0.00447   0.00447  -1.61779
   D10       -1.84700   0.03761   0.00000  -0.09210  -0.09210  -1.93909
   D11        1.45880  -0.03272   0.00000   0.09044   0.09044   1.54924
         Item               Value     Threshold  Converged?
 Maximum Force            0.042111     0.000450     NO 
 RMS     Force            0.019578     0.000300     NO 
 Maximum Displacement     0.124746     0.001800     NO 
 RMS     Displacement     0.050709     0.001200     NO 
 Predicted change in Energy=-1.693094D-03
 GradGradGradGradGradGradGradGradGradGradGradGradGradGradGradGradGradGrad

 ---------------------------------------------------------------------------------------------------
                            Z-MATRIX (ANGSTROMS AND DEGREES)
   CD    Cent   Atom    N1       Length/X        N2       Alpha/Y        N3        Beta/Z          J
 ---------------------------------------------------------------------------------------------------
      1      1  C 
      2      2  O        1   2.348235(     1)
      3      3  H        1   2.183537(     2)      2   76.551(    14)
      4      4  H        1   2.168299(     3)      2   95.647(    15)      3   45.842(    26)      0
      5      5  H        2   0.963292(     4)      1  126.068(    16)      4  -65.604(    27)      0
      6      6  H        2   0.963281(     5)      1  125.262(    17)      4  134.039(    28)      0
      7      7  H        1   1.075849(     6)      2   81.057(    18)      5  151.644(    29)      0
      8      8  H        1   2.501080(     7)      2  127.738(    19)      5 -141.224(    30)      0
      9      9  H        1   2.086266(     8)      2  128.347(    20)      5   52.698(    31)      0
     10     10  H        1   2.139262(     9)      2  101.066(    21)      5    6.481(    32)      0
     11     11  H        1   2.074486(    10)      2   79.696(    22)      5   51.755(    33)      0
     12     12  C        1   1.475598(    11)      2   95.889(    23)      5  -92.693(    34)      0
     13     13  C        1   1.465754(    12)     12  124.169(    24)      2 -111.102(    35)      0
     14     14  O       12   1.450113(    13)      1   86.727(    25)     13   88.765(    36)      0
 ---------------------------------------------------------------------------------------------------
                         Z-Matrix orientation:                         
 ---------------------------------------------------------------------
 Center     Atomic      Atomic             Coordinates (Angstroms)
 Number     Number       Type             X           Y           Z
 ---------------------------------------------------------------------
      1          6           0        0.000000    0.000000    0.000000
      2          8           0        0.000000    0.000000    2.348235
      3          1           0        2.123663    0.000000    0.507829
      4          1           0        1.503187   -1.548041   -0.213349
      5          1           0       -0.284695   -0.724733    2.915371
      6          1           0        0.024746    0.786153    2.904347
      7          1           0       -0.127857    1.055050    0.167252
      8          1           0        1.716746    0.982292   -1.530780
      9          1           0       -1.573941   -0.447044   -1.294360
     10          1           0       -0.983279   -1.854992   -0.410620
     11          1           0       -1.953928   -0.589894    0.371059
     12          6           0        1.389883   -0.471902   -0.151403
     13          6           0       -1.181566   -0.793687   -0.349854
     14          8           0        1.337788    0.065370   -1.497305
 ---------------------------------------------------------------------
                    Distance matrix (angstroms):
                    1          2          3          4          5
     1  C    0.000000
     2  O    2.348235   0.000000
     3  H    2.183537   2.810167   0.000000
     4  H    2.168299   3.349286   1.817009   0.000000
     5  H    3.017562   0.963292   3.481621   3.696383   0.000000
     6  H    3.008967   0.963281   3.281278   4.165847   1.542288
     7  H    1.075849   2.426142   2.509674   3.095359   3.277863
     8  H    2.501080   4.354179   2.299219   2.860737   5.166039
     9  H    2.086266   3.993199   4.137633   3.442309   4.411474
    10  H    2.139262   3.466860   3.733314   2.513095   3.581581
    11  H    2.074486   2.841661   4.122309   3.634725   3.045989
    12  C    1.475598   2.898734   1.093486   1.083859   3.503318
    13  C    1.465754   3.050528   3.505724   2.792057   3.386861
    14  O    2.008948   4.072116   2.154631   2.068573   4.767434
                    6          7          8          9         10
     6  H    0.000000
     7  H    2.754503   0.000000
     8  H    4.750967   2.508220   0.000000
     9  H    4.658939   2.546322   3.595485   0.000000
    10  H    4.356693   3.087722   4.073706   1.764141   0.000000
    11  H    3.496599   2.466153   4.422963   1.714181   1.775853
    12  C    3.575460   2.176386   2.030813   3.176668   2.758991
    13  C    3.813254   2.189869   3.598458   1.079913   1.081379
    14  O    4.649532   2.428648   0.992711   2.963431   3.202504
                   11         12         13         14
    11  H    0.000000
    12  C    3.386437   0.000000
    13  C    1.076006   2.599091   0.000000
    14  O    3.841295   1.450113   2.898580   0.000000
 Symmetry turned off by external request.
 Stoichiometry    C3H9O2(1+)
 Framework group  C1[X(C3H9O2)]
 Deg. of freedom    36
 Full point group                 C1      NOp   1
 Rotational constants (GHZ):      6.2852961      2.9272898      2.2169056
 Standard basis: 6-31++G(d,p) (6D, 7F)
 The following finite field(s) will be applied:
 An electric field of              0.0000  0.0000 -0.0010
 Integral buffers will be    131072 words long.
 Raffenetti 2 integral format.
 Two-electron integral symmetry is turned off.
   149 basis functions,   232 primitive gaussians,   149 cartesian basis functions
    21 alpha electrons       21 beta electrons
       nuclear repulsion energy       191.0198272984 Hartrees.
 NAtoms=   14 NActive=   14 NUniq=   14 SFac= 1.00D+00 NAtFMM=   50 NAOKFM=F Big=F
 One-electron integrals computed using PRISM.
 PrsmSu:  requested number of processors reduced to:  10 ShMem   1 Linda.
 NBasis=   149 RedAO= T  NBF=   149
 NBsUse=   149 1.00D-06 NBFU=   149
 The nuclear repulsion energy is now       191.0061898038 hartrees.
 Initial guess read from the read-write file.
 B after Tr=     0.000000    0.000000    0.000000
         Rot=    1.000000    0.000000    0.000000    0.000000 Ang=   0.00 deg.
 Harris functional with IExCor=  402 diagonalized for initial guess.
 ExpMin= 3.60D-02 ExpMax= 5.48D+03 ExpMxC= 8.25D+02 IAcc=3 IRadAn=         0 AccDes= 0.00D+00
 HarFok:  IExCor=  402 AccDes= 0.00D+00 IRadAn=         0 IDoV= 1
 ScaDFX=  1.000000  1.000000  1.000000  1.000000
 FoFCou: FMM=F IPFlag=           0 FMFlag=      100000 FMFlg1=           0
         NFxFlg=           0 DoJE=T BraDBF=F KetDBF=T FulRan=T
         Omega=  0.000000  0.000000  1.000000  0.000000  0.000000 ICntrl=     500 IOpCl=  0
         NMat0=    1 NMatS0=    1 NMatT0=    0 NMatD0=    1 NMtDS0=    0 NMtDT0=    0
         I1Cent=           4 NGrid=           0.
 Symmetry not used in FoFCou.
 Requested convergence on RMS density matrix=1.00D-08 within 128 cycles.
 Requested convergence on MAX density matrix=1.00D-06.
 Requested convergence on             energy=1.00D-06.
 No special actions if energy rises.
 SCF Done:  E(RB3LYP) =  -269.890318535     A.U. after   12 cycles
             Convg  =    0.1510D-08             -V/T =  2.0093
 PrsmSu:  requested number of processors reduced to:  10 ShMem   1 Linda.
 PrsmSu:  requested number of processors reduced to:  23 ShMem   1 Linda.
 Calling FoFJK, ICntrl=      2127 FMM=F ISym2X=0 I1Cent= 0 IOpClX= 0 NMat=1 NMatS=1 NMatT=0.
 CoulSu:  requested number of processors reduced to:  16 ShMem   1 Linda.
 -------------------------------------------------------------------
 Center     Atomic                   Forces (Hartrees/Bohr)
 Number     Number              X              Y              Z
 -------------------------------------------------------------------
      1        6           0.001437025   -0.005906696    0.000736136
      2        8           0.000987958   -0.001729134   -0.007250280
      3        1          -0.000458334   -0.001926342   -0.003356816
      4        1           0.002129941   -0.003100262    0.000182127
      5        1          -0.001490647   -0.004089467    0.003045086
      6        1           0.000009602    0.004403149    0.002938630
      7        1          -0.000714320    0.007637032    0.001125284
      8        1          -0.005644336   -0.016895495    0.000507653
      9        1          -0.004563561    0.005030982   -0.011745779
     10        1           0.001450543   -0.006347304   -0.000308614
     11        1          -0.010459917    0.003018006    0.009392643
     12        6          -0.000415995    0.006451722    0.005225955
     13        6           0.012562666   -0.002240944    0.002414093
     14        8           0.005169374    0.015694754   -0.001906118
 -------------------------------------------------------------------
 Cartesian Forces:  Max     0.016895495 RMS     0.005986300
 -----------------------------------------------------------------------------------------------
                       Internal Coordinate Forces (Hartree/Bohr or radian)
  Cent   Atom   N1       Length/X         N2         Alpha/Y        N3         Beta/Z          J
 -----------------------------------------------------------------------------------------------
      1  C 
      2  O        1  -0.001267(     1)
      3  H        1  -0.001226(     2)      2   0.013032(    14)
      4  H        1   0.003672(     3)      2  -0.002238(    15)      3  -0.007734(    26)     0
      5  H        2   0.005310(     4)      1  -0.000183(    16)      4   0.010118(    27)     0
      6  H        2   0.005290(     5)      1  -0.000257(    17)      4   0.000192(    28)     0
      7  H        1   0.007749(     6)      2   0.000163(    18)      5   0.000421(    29)     0
      8  H        1  -0.010821(     7)      2   0.036547(    19)      5   0.044335(    30)     0
      9  H        1   0.009652(     8)      2   0.028942(    20)      5   0.018819(    31)     0
     10  H        1   0.004896(     9)      2  -0.002600(    21)      5  -0.016879(    32)     0
     11  H        1   0.010674(    10)      2  -0.029817(    22)      5   0.022804(    33)     0
     12  C        1  -0.002946(    11)      2  -0.013276(    23)      5  -0.079459(    34)     0
     13  C        1  -0.009490(    12)     12  -0.023341(    24)      2  -0.034418(    35)     0
     14  O       12   0.007398(    13)      1   0.001284(    25)     13   0.040738(    36)     0
 -----------------------------------------------------------------------------------------------
 Internal  Forces:  Max     0.079458839 RMS     0.021760152

 GradGradGradGradGradGradGradGradGradGradGradGradGradGradGradGradGradGrad
 Berny optimization.
 Search for a saddle point.
 Step number   2 out of a maximum of  100
 All quantities printed in internal units (Hartrees-Bohrs-Radians)
 Swaping is turned off.
 Update second derivatives using D2CorN and points    1    2
 ITU=  0  0
     Eigenvalues ---   -0.08510   0.00019   0.00304   0.01026   0.01824
     Eigenvalues ---    0.03256   0.03418   0.04406   0.05333   0.06164
     Eigenvalues ---    0.06890   0.07354   0.07517   0.09785   0.12477
     Eigenvalues ---    0.20391   0.28835   0.29535   0.31199   0.40238
     Eigenvalues ---    0.48485   0.51569   0.56430   0.56506   0.68010
     Eigenvalues ---    0.97274   1.20836   1.34512   1.44163   2.85786
     Eigenvalues ---    3.43439   6.58130   7.15848  12.58991  20.37785
 Eigenvectors required to have negative eigenvalues:
                          D6        A8        D8        A7        A9
   1                    0.55233   0.49354  -0.46292  -0.32785  -0.32188
                          B7        B9        D7        A12       A5
   1                    0.07261  -0.07143  -0.06476  -0.06041  -0.05495
 RFO step:  Lambda0=4.605393387D-07 Lambda=-5.59328057D-03.
 Linear search not attempted -- option 19 set.
 Variable       Old X    -DE/DX   Delta X   Delta X   Delta X     New X
                                 (Linear)    (Quad)   (Total)
    B1        4.12629  -0.00123   0.00000   0.00908   0.00908   4.13537
    B2        4.09749   0.00367   0.00000   0.04127   0.04127   4.13876
    B3        1.82036   0.00531   0.00000   0.01005   0.01005   1.83041
    B4        1.82034   0.00529   0.00000   0.01003   0.01003   1.83036
    B5        2.03306   0.00775   0.00000   0.01985   0.01985   2.05291
    B6        4.72636  -0.01082   0.00000   0.02737   0.02737   4.75372
    B7        3.94247   0.00965   0.00000   0.01528   0.01528   3.95775
    B8        4.04262   0.00490   0.00000   0.02556   0.02556   4.06818
    B9        3.92021   0.01067   0.00000   0.04153   0.04153   3.96174
   B10        2.78848  -0.00295   0.00000  -0.01184  -0.01184   2.77663
   B11        2.76987  -0.00949   0.00000   0.01102   0.01102   2.78090
   B12        2.74032   0.00740   0.00000   0.02754   0.02754   2.76785
    A1        1.33608   0.01303   0.00000   0.05154   0.05154   1.38762
    A2        1.66935  -0.00224   0.00000  -0.08499  -0.08499   1.58436
    A3        2.20031  -0.00018   0.00000  -0.00297  -0.00297   2.19734
    A4        2.18623  -0.00026   0.00000  -0.02216  -0.02216   2.16407
    A5        1.41470   0.00016   0.00000   0.03539   0.03539   1.45009
    A6        2.22944   0.03655   0.00000   0.10137   0.10137   2.33081
    A7        2.24007   0.02894   0.00000  -0.01561  -0.01561   2.22447
    A8        1.76394  -0.00260   0.00000  -0.02374  -0.02374   1.74020
    A9        1.39096  -0.02982   0.00000  -0.02484  -0.02484   1.36612
   A10        1.67358  -0.01328   0.00000  -0.03334  -0.03334   1.64024
   A11        2.16715  -0.02334   0.00000   0.01100   0.01100   2.17815
   A12        1.51367   0.00128   0.00000  -0.07344  -0.07344   1.44023
    D1        0.80010  -0.00773   0.00000   0.02791   0.02791   0.82801
    D2       -1.14501   0.01012   0.00000  -0.01232  -0.01232  -1.15733
    D3        2.33943   0.00019   0.00000   0.13322   0.13322   2.47265
    D4        2.64669   0.00042   0.00000   0.00975   0.00975   2.65644
    D5       -2.46482   0.04433   0.00000   0.14074   0.14074  -2.32408
    D6        0.91975   0.01882   0.00000   0.00112   0.00112   0.92086
    D7        0.11311  -0.01688   0.00000   0.00499   0.00499   0.11810
    D8        0.90329   0.02280   0.00000   0.00966   0.00966   0.91295
    D9       -1.61779  -0.07946   0.00000   0.00841   0.00841  -1.60938
   D10       -1.93909  -0.03442   0.00000   0.05419   0.05419  -1.88490
   D11        1.54924   0.04074   0.00000  -0.09659  -0.09659   1.45265
         Item               Value     Threshold  Converged?
 Maximum Force            0.079459     0.000450     NO 
 RMS     Force            0.022068     0.000300     NO 
 Maximum Displacement     0.140742     0.001800     NO 
 RMS     Displacement     0.050074     0.001200     NO 
 Predicted change in Energy=-3.041821D-03
 GradGradGradGradGradGradGradGradGradGradGradGradGradGradGradGradGradGrad

 ---------------------------------------------------------------------------------------------------
                            Z-MATRIX (ANGSTROMS AND DEGREES)
   CD    Cent   Atom    N1       Length/X        N2       Alpha/Y        N3        Beta/Z          J
 ---------------------------------------------------------------------------------------------------
      1      1  C 
      2      2  O        1   2.348235(     1)
      3      3  H        1   2.188341(     2)      2   79.505(    14)
      4      4  H        1   2.190139(     3)      2   90.777(    15)      3   47.441(    26)      0
      5      5  H        2   0.968612(     4)      1  125.898(    16)      4  -66.310(    27)      0
      6      6  H        2   0.968586(     5)      1  123.992(    17)      4  141.672(    28)      0
      7      7  H        1   1.086351(     6)      2   83.084(    18)      5  152.203(    29)      0
      8      8  H        1   2.515562(     7)      2  133.546(    19)      5 -133.160(    30)      0
      9      9  H        1   2.094351(     8)      2  127.453(    20)      5   52.762(    31)      0
     10     10  H        1   2.152786(     9)      2   99.706(    21)      5    6.766(    32)      0
     11     11  H        1   2.096461(    10)      2   78.273(    22)      5   52.308(    33)      0
     12     12  C        1   1.469331(    11)      2   93.979(    23)      5  -92.211(    34)      0
     13     13  C        1   1.471586(    12)     12  124.799(    24)      2 -107.997(    35)      0
     14     14  O       12   1.464686(    13)      1   82.519(    25)     13   83.231(    36)      0
 ---------------------------------------------------------------------------------------------------
                         Z-Matrix orientation:                         
 ---------------------------------------------------------------------
 Center     Atomic      Atomic             Coordinates (Angstroms)
 Number     Number       Type             X           Y           Z
 ---------------------------------------------------------------------
      1          6           0        0.000000    0.000000    0.000000
      2          8           0        0.000000    0.000000    2.348235
      3          1           0        2.151729    0.000000    0.398623
      4          1           0        1.481150   -1.613077   -0.029716
      5          1           0       -0.316028   -0.718177    2.916176
      6          1           0       -0.059247    0.800883    2.889746
      7          1           0       -0.076086    1.075760    0.130807
      8          1           0        1.719733    0.605892   -1.733052
      9          1           0       -1.616767   -0.387759   -1.273584
     10          1           0       -1.077553   -1.828013   -0.362957
     11          1           0       -1.992240   -0.494525    0.426113
     12          6           0        1.363414   -0.538185   -0.101952
     13          6           0       -1.225365   -0.751887   -0.314187
     14          8           0        1.198353   -0.169036   -1.509712
 ---------------------------------------------------------------------
                    Distance matrix (angstroms):
                    1          2          3          4          5
     1  C    0.000000
     2  O    2.348235   0.000000
     3  H    2.188341   2.903606   0.000000
     4  H    2.190139   3.232720   1.798657   0.000000
     5  H    3.019889   0.968612   3.597732   3.564965   0.000000
     6  H    2.999260   0.968586   3.425716   4.089412   1.540837
     7  H    1.086351   2.465773   2.488402   3.111366   3.321756
     8  H    2.515562   4.470066   2.257822   2.807507   5.245264
     9  H    2.094351   3.985206   4.141038   3.556079   4.399452
    10  H    2.152786   3.442864   3.788126   2.589249   3.544625
    11  H    2.096461   2.812140   4.173463   3.677415   3.010003
    12  C    1.469331   2.855163   1.077803   1.083732   3.458614
    13  C    1.471586   3.025780   3.532449   2.854435   3.356080
    14  O    1.934904   4.043313   2.139916   2.087011   4.709924
                    6          7          8          9         10
     6  H    0.000000
     7  H    2.772650   0.000000
     8  H    4.957122   2.630534   0.000000
     9  H    4.601310   2.547135   3.511507   0.000000
    10  H    4.304430   3.111050   3.952955   1.787267   0.000000
    11  H    3.388810   2.494924   4.433018   1.743946   1.799298
    12  C    3.573139   2.175121   2.023947   3.205749   2.773103
    13  C    3.746480   2.204348   3.539822   1.098283   1.087325
    14  O    4.677343   2.421779   0.960328   2.833460   3.040888
                   11         12         13         14
    11  H    0.000000
    12  C    3.397230   0.000000
    13  C    1.096529   2.606240   0.000000
    14  O    3.746098   1.464686   2.764671   0.000000
 Symmetry turned off by external request.
 Stoichiometry    C3H9O2(1+)
 Framework group  C1[X(C3H9O2)]
 Deg. of freedom    36
 Full point group                 C1      NOp   1
 Rotational constants (GHZ):      6.5178884      2.9731754      2.2546585
 Standard basis: 6-31++G(d,p) (6D, 7F)
 The following finite field(s) will be applied:
 An electric field of              0.0000  0.0000 -0.0010
 Integral buffers will be    131072 words long.
 Raffenetti 2 integral format.
 Two-electron integral symmetry is turned off.
   149 basis functions,   232 primitive gaussians,   149 cartesian basis functions
    21 alpha electrons       21 beta electrons
       nuclear repulsion energy       192.0448987323 Hartrees.
 NAtoms=   14 NActive=   14 NUniq=   14 SFac= 1.00D+00 NAtFMM=   50 NAOKFM=F Big=F
 One-electron integrals computed using PRISM.
 PrsmSu:  requested number of processors reduced to:  10 ShMem   1 Linda.
 NBasis=   149 RedAO= T  NBF=   149
 NBsUse=   149 1.00D-06 NBFU=   149
 The nuclear repulsion energy is now       192.0305868727 hartrees.
 Initial guess read from the read-write file.
 B after Tr=     0.000000    0.000000    0.000000
         Rot=    1.000000    0.000000    0.000000    0.000000 Ang=   0.00 deg.
 Harris functional with IExCor=  402 diagonalized for initial guess.
 ExpMin= 3.60D-02 ExpMax= 5.48D+03 ExpMxC= 8.25D+02 IAcc=3 IRadAn=         0 AccDes= 0.00D+00
 HarFok:  IExCor=  402 AccDes= 0.00D+00 IRadAn=         0 IDoV= 1
 ScaDFX=  1.000000  1.000000  1.000000  1.000000
 FoFCou: FMM=F IPFlag=           0 FMFlag=      100000 FMFlg1=           0
         NFxFlg=           0 DoJE=T BraDBF=F KetDBF=T FulRan=T
         Omega=  0.000000  0.000000  1.000000  0.000000  0.000000 ICntrl=     500 IOpCl=  0
         NMat0=    1 NMatS0=    1 NMatT0=    0 NMatD0=    1 NMtDS0=    0 NMtDT0=    0
         I1Cent=           4 NGrid=           0.
 Symmetry not used in FoFCou.
 Requested convergence on RMS density matrix=1.00D-08 within 128 cycles.
 Requested convergence on MAX density matrix=1.00D-06.
 Requested convergence on             energy=1.00D-06.
 No special actions if energy rises.
 SCF Done:  E(RB3LYP) =  -269.891589362     A.U. after   12 cycles
             Convg  =    0.2851D-08             -V/T =  2.0094
 PrsmSu:  requested number of processors reduced to:  10 ShMem   1 Linda.
 PrsmSu:  requested number of processors reduced to:  23 ShMem   1 Linda.
 Calling FoFJK, ICntrl=      2127 FMM=F ISym2X=0 I1Cent= 0 IOpClX= 0 NMat=1 NMatS=1 NMatT=0.
 CoulSu:  requested number of processors reduced to:  16 ShMem   1 Linda.
 -------------------------------------------------------------------
 Center     Atomic                   Forces (Hartrees/Bohr)
 Number     Number              X              Y              Z
 -------------------------------------------------------------------
      1        6          -0.000175823    0.002608297    0.003505467
      2        8          -0.000919125   -0.000181096    0.000610489
      3        1           0.004037582    0.004334034    0.004051414
      4        1          -0.000561281   -0.003392238    0.001038033
      5        1           0.000217438   -0.001014012   -0.000490984
      6        1           0.000574316    0.000705759   -0.000298128
      7        1          -0.000289296    0.000399003   -0.000827052
      8        1           0.005796661    0.011686107   -0.001790258
      9        1          -0.000328921   -0.000293598   -0.000268129
     10        1           0.000538699   -0.002085562    0.000270043
     11        1           0.000596502   -0.000336680    0.000267763
     12        6          -0.004098401   -0.002571642   -0.007044589
     13        6          -0.000038628    0.002582499   -0.000482275
     14        8          -0.005349723   -0.012440872    0.002458207
 -------------------------------------------------------------------
 Cartesian Forces:  Max     0.012440872 RMS     0.003573052
 -----------------------------------------------------------------------------------------------
                       Internal Coordinate Forces (Hartree/Bohr or radian)
  Cent   Atom   N1       Length/X         N2         Alpha/Y        N3         Beta/Z          J
 -----------------------------------------------------------------------------------------------
      1  C 
      2  O        1  -0.000179(     1)
      3  H        1   0.004708(     2)      2  -0.013432(    14)
      4  H        1   0.002105(     3)      2  -0.004415(    15)      3   0.017504(    26)     0
      5  H        2   0.000393(     4)      1  -0.001630(    16)      4  -0.005350(    27)     0
      6  H        2   0.000382(     5)      1  -0.001129(    17)      4  -0.000948(    28)     0
      7  H        1   0.000316(     6)      2   0.001789(    18)      5  -0.000531(    29)     0
      8  H        1   0.008011(     7)      2  -0.024454(    19)      5  -0.031341(    30)     0
      9  H        1   0.000471(     8)      2  -0.000092(    20)      5  -0.000656(    31)     0
     10  H        1   0.001456(     9)      2  -0.002128(    21)      5  -0.006108(    32)     0
     11  H        1  -0.000433(    10)      2  -0.001440(    22)      5  -0.001825(    33)     0
     12  C        1  -0.002950(    11)      2   0.015561(    23)      5   0.046711(    34)     0
     13  C        1  -0.001184(    12)     12   0.005500(    24)      2   0.032263(    35)     0
     14  O       12  -0.004895(    13)      1  -0.003392(    25)     13  -0.035141(    36)     0
 -----------------------------------------------------------------------------------------------
 Internal  Forces:  Max     0.046710837 RMS     0.013984706

 GradGradGradGradGradGradGradGradGradGradGradGradGradGradGradGradGradGrad
 Berny optimization.
 Search for a saddle point.
 Step number   3 out of a maximum of  100
 All quantities printed in internal units (Hartrees-Bohrs-Radians)
 Swaping is turned off.
 Update second derivatives using D2CorN and points    1    2    3
 ITU=  0  0  0
     Eigenvalues ---   -0.08510  -0.00053   0.00336   0.00977   0.01819
     Eigenvalues ---    0.02741   0.03411   0.04377   0.05327   0.06334
     Eigenvalues ---    0.07003   0.07381   0.07729   0.10090   0.12648
     Eigenvalues ---    0.20388   0.28841   0.29555   0.31205   0.40208
     Eigenvalues ---    0.48473   0.51654   0.56429   0.56458   0.68022
     Eigenvalues ---    0.97273   1.20839   1.34529   1.44161   2.85970
     Eigenvalues ---    3.43094   6.58112   7.15850  12.59041  20.38355
 Eigenvectors required to have negative eigenvalues:
                          D6        A8        D8        A7        A9
   1                    0.55298   0.49399  -0.46243  -0.32741  -0.32136
                          B7        B9        D7        A12       A5
   1                    0.07267  -0.07088  -0.06416  -0.06085  -0.05552
 RFO step:  Lambda0=5.218260472D-08 Lambda=-1.53507912D-03.
 Linear search not attempted -- option 19 set.
 Maximum step size (   0.300) exceeded in Quadratic search.
    -- Step size scaled by   0.298
 Variable       Old X    -DE/DX   Delta X   Delta X   Delta X     New X
                                 (Linear)    (Quad)   (Total)
    B1        4.13537   0.00471   0.00000  -0.00153  -0.00153   4.13384
    B2        4.13876   0.00210   0.00000  -0.00388  -0.00388   4.13488
    B3        1.83041   0.00039   0.00000   0.00027   0.00027   1.83068
    B4        1.83036   0.00038   0.00000   0.00029   0.00029   1.83065
    B5        2.05291   0.00032   0.00000   0.00191   0.00191   2.05481
    B6        4.75372   0.00801   0.00000   0.00973   0.00973   4.76345
    B7        3.95775   0.00047   0.00000   0.00706   0.00706   3.96481
    B8        4.06818   0.00146   0.00000  -0.00264  -0.00264   4.06554
    B9        3.96174  -0.00043   0.00000  -0.00194  -0.00194   3.95980
   B10        2.77663  -0.00295   0.00000   0.00556   0.00556   2.78219
   B11        2.78090  -0.00118   0.00000  -0.00205  -0.00205   2.77885
   B12        2.76785  -0.00490   0.00000  -0.00953  -0.00953   2.75833
    A1        1.38762  -0.01343   0.00000  -0.00026  -0.00026   1.38735
    A2        1.58436  -0.00441   0.00000  -0.00988  -0.00988   1.57449
    A3        2.19734  -0.00163   0.00000  -0.00848  -0.00848   2.18886
    A4        2.16407  -0.00113   0.00000   0.00151   0.00151   2.16558
    A5        1.45009   0.00179   0.00000   0.02266   0.02266   1.47276
    A6        2.33081  -0.02445   0.00000   0.00256   0.00256   2.33337
    A7        2.22447  -0.00009   0.00000  -0.00494  -0.00494   2.21953
    A8        1.74020  -0.00213   0.00000  -0.00498  -0.00498   1.73522
    A9        1.36612  -0.00144   0.00000  -0.00516  -0.00516   1.36096
   A10        1.64024   0.01556   0.00000   0.00445   0.00445   1.64469
   A11        2.17815   0.00550   0.00000  -0.00809  -0.00809   2.17006
   A12        1.44023  -0.00339   0.00000   0.02755   0.02755   1.46778
    D1        0.82801   0.01750   0.00000   0.00555   0.00555   0.83356
    D2       -1.15733  -0.00535   0.00000   0.11106   0.11106  -1.04627
    D3        2.47265  -0.00095   0.00000   0.09910   0.09910   2.57175
    D4        2.65644  -0.00053   0.00000   0.10496   0.10496   2.76140
    D5       -2.32408  -0.03134   0.00000   0.11403   0.11403  -2.21005
    D6        0.92086  -0.00066   0.00000   0.09936   0.09936   1.02022
    D7        0.11810  -0.00611   0.00000   0.09969   0.09969   0.21779
    D8        0.91295  -0.00182   0.00000   0.10041   0.10041   1.01335
    D9       -1.60938   0.04671   0.00000   0.10906   0.10906  -1.50032
   D10       -1.88490   0.03226   0.00000   0.00342   0.00342  -1.88148
   D11        1.45265  -0.03514   0.00000  -0.00912  -0.00912   1.44353
         Item               Value     Threshold  Converged?
 Maximum Force            0.046711     0.000450     NO 
 RMS     Force            0.014183     0.000300     NO 
 Maximum Displacement     0.114025     0.001800     NO 
 RMS     Displacement     0.050709     0.001200     NO 
 Predicted change in Energy=-5.008594D-04
 GradGradGradGradGradGradGradGradGradGradGradGradGradGradGradGradGradGrad

 ---------------------------------------------------------------------------------------------------
                            Z-MATRIX (ANGSTROMS AND DEGREES)
   CD    Cent   Atom    N1       Length/X        N2       Alpha/Y        N3        Beta/Z          J
 ---------------------------------------------------------------------------------------------------
      1      1  C 
      2      2  O        1   2.348235(     1)
      3      3  H        1   2.187533(     2)      2   79.489(    14)
      4      4  H        1   2.188084(     3)      2   90.211(    15)      3   47.759(    26)      0
      5      5  H        2   0.968755(     4)      1  125.412(    16)      4  -59.947(    27)      0
      6      6  H        2   0.968737(     5)      1  124.078(    17)      4  147.350(    28)      0
      7      7  H        1   1.087360(     6)      2   84.383(    18)      5  158.217(    29)      0
      8      8  H        1   2.520709(     7)      2  133.692(    19)      5 -126.627(    30)      0
      9      9  H        1   2.098089(     8)      2  127.169(    20)      5   58.455(    31)      0
     10     10  H        1   2.151389(     9)      2   99.421(    21)      5   12.478(    32)      0
     11     11  H        1   2.095437(    10)      2   77.977(    22)      5   58.061(    33)      0
     12     12  C        1   1.472272(    11)      2   94.234(    23)      5  -85.962(    34)      0
     13     13  C        1   1.470502(    12)     12  124.335(    24)      2 -107.801(    35)      0
     14     14  O       12   1.459643(    13)      1   84.098(    25)     13   82.708(    36)      0
 ---------------------------------------------------------------------------------------------------
                         Z-Matrix orientation:                         
 ---------------------------------------------------------------------
 Center     Atomic      Atomic             Coordinates (Angstroms)
 Number     Number       Type             X           Y           Z
 ---------------------------------------------------------------------
      1          6           0        0.000000    0.000000    0.000000
      2          8           0        0.000000    0.000000    2.348235
      3          1           0        2.150829    0.000000    0.399042
      4          1           0        1.470920   -1.619890   -0.008074
      5          1           0       -0.240125   -0.752137    2.909588
      6          1           0       -0.133686    0.791162    2.891045
      7          1           0       -0.076945    1.079399    0.106435
      8          1           0        1.724144    0.590998   -1.741270
      9          1           0       -1.623332   -0.399913   -1.267612
     10          1           0       -1.067090   -1.834607   -0.352152
     11          1           0       -1.986560   -0.503897    0.436485
     12          6           0        1.363786   -0.543930   -0.108692
     13          6           0       -1.222055   -0.757294   -0.308969
     14          8           0        1.224958   -0.203458   -1.521266
 ---------------------------------------------------------------------
                    Distance matrix (angstroms):
                    1          2          3          4          5
     1  C    0.000000
     2  O    2.348235   0.000000
     3  H    2.187533   2.902657   0.000000
     4  H    2.188084   3.215562   1.803348   0.000000
     5  H    3.014809   0.968755   3.547564   3.491908   0.000000
     6  H    3.000325   0.968737   3.472035   4.097904   1.547075
     7  H    1.087360   2.489316   2.492729   3.113705   3.352435
     8  H    2.520709   4.477277   2.261034   2.820659   5.224256
     9  H    2.098089   3.983653   4.145112   3.556567   4.414332
    10  H    2.151389   3.434611   3.779561   2.570211   3.534765
    11  H    2.095437   2.802699   4.168130   3.660224   3.037746
    12  C    1.472272   2.862213   1.083093   1.085952   3.424309
    13  C    1.470502   3.021200   3.528615   2.843716   3.365015
    14  O    1.963713   4.063860   2.141545   2.087229   4.698934
                    6          7          8          9         10
     6  H    0.000000
     7  H    2.800063   0.000000
     8  H    4.994992   2.626113   0.000000
     9  H    4.575165   2.543164   3.523045   0.000000
    10  H    4.276006   3.111611   3.950215   1.790480   0.000000
    11  H    3.336942   2.502477   4.439678   1.745479   1.799490
    12  C    3.608783   2.181096   2.020700   3.207290   2.763020
    13  C    3.717842   2.203924   3.542523   1.098973   1.089257
    14  O    4.722676   2.447465   0.963716   2.866302   3.046467
                   11         12         13         14
    11  H    0.000000
    12  C    3.394649   0.000000
    13  C    1.097443   2.602346   0.000000
    14  O    3.773182   1.459643   2.786444   0.000000
 Symmetry turned off by external request.
 Stoichiometry    C3H9O2(1+)
 Framework group  C1[X(C3H9O2)]
 Deg. of freedom    36
 Full point group                 C1      NOp   1
 Rotational constants (GHZ):      6.5323320      2.9486728      2.2424611
 Standard basis: 6-31++G(d,p) (6D, 7F)
 The following finite field(s) will be applied:
 An electric field of              0.0000  0.0000 -0.0010
 Integral buffers will be    131072 words long.
 Raffenetti 2 integral format.
 Two-electron integral symmetry is turned off.
   149 basis functions,   232 primitive gaussians,   149 cartesian basis functions
    21 alpha electrons       21 beta electrons
       nuclear repulsion energy       191.6883966788 Hartrees.
 NAtoms=   14 NActive=   14 NUniq=   14 SFac= 1.00D+00 NAtFMM=   50 NAOKFM=F Big=F
 One-electron integrals computed using PRISM.
 PrsmSu:  requested number of processors reduced to:  10 ShMem   1 Linda.
 NBasis=   149 RedAO= T  NBF=   149
 NBsUse=   149 1.00D-06 NBFU=   149
 The nuclear repulsion energy is now       191.6742553413 hartrees.
 Initial guess read from the read-write file.
 B after Tr=     0.000000    0.000000    0.000000
         Rot=    1.000000    0.000000    0.000000    0.000000 Ang=   0.00 deg.
 Harris functional with IExCor=  402 diagonalized for initial guess.
 ExpMin= 3.60D-02 ExpMax= 5.48D+03 ExpMxC= 8.25D+02 IAcc=3 IRadAn=         0 AccDes= 0.00D+00
 HarFok:  IExCor=  402 AccDes= 0.00D+00 IRadAn=         0 IDoV= 1
 ScaDFX=  1.000000  1.000000  1.000000  1.000000
 FoFCou: FMM=F IPFlag=           0 FMFlag=      100000 FMFlg1=           0
         NFxFlg=           0 DoJE=T BraDBF=F KetDBF=T FulRan=T
         Omega=  0.000000  0.000000  1.000000  0.000000  0.000000 ICntrl=     500 IOpCl=  0
         NMat0=    1 NMatS0=    1 NMatT0=    0 NMatD0=    1 NMtDS0=    0 NMtDT0=    0
         I1Cent=           4 NGrid=           0.
 Symmetry not used in FoFCou.
 Requested convergence on RMS density matrix=1.00D-08 within 128 cycles.
 Requested convergence on MAX density matrix=1.00D-06.
 Requested convergence on             energy=1.00D-06.
 No special actions if energy rises.
 SCF Done:  E(RB3LYP) =  -269.891973762     A.U. after   10 cycles
             Convg  =    0.7553D-08             -V/T =  2.0095
 PrsmSu:  requested number of processors reduced to:  10 ShMem   1 Linda.
 PrsmSu:  requested number of processors reduced to:  23 ShMem   1 Linda.
 Calling FoFJK, ICntrl=      2127 FMM=F ISym2X=0 I1Cent= 0 IOpClX= 0 NMat=1 NMatS=1 NMatT=0.
 CoulSu:  requested number of processors reduced to:  16 ShMem   1 Linda.
 -------------------------------------------------------------------
 Center     Atomic                   Forces (Hartrees/Bohr)
 Number     Number              X              Y              Z
 -------------------------------------------------------------------
      1        6          -0.000401572    0.000966011    0.002477660
      2        8          -0.000459860   -0.000093404   -0.001011068
      3        1           0.002028320    0.002207193    0.001993719
      4        1          -0.000296621   -0.001925112    0.000266672
      5        1           0.000113038   -0.000198808   -0.000186112
      6        1           0.000381887    0.000091241   -0.000032896
      7        1          -0.000011905    0.000062394   -0.000305261
      8        1           0.004271758    0.008155926   -0.001240438
      9        1           0.000002086   -0.000198396    0.000056006
     10        1           0.000232350   -0.000829519    0.000094217
     11        1           0.000661142   -0.000195098   -0.000207994
     12        6          -0.002086749   -0.000574990   -0.003163468
     13        6          -0.000353663    0.001192572    0.000225541
     14        8          -0.004080211   -0.008660010    0.002033422
 -------------------------------------------------------------------
 Cartesian Forces:  Max     0.008660010 RMS     0.002316237
 -----------------------------------------------------------------------------------------------
                       Internal Coordinate Forces (Hartree/Bohr or radian)
  Cent   Atom   N1       Length/X         N2         Alpha/Y        N3         Beta/Z          J
 -----------------------------------------------------------------------------------------------
      1  C 
      2  O        1  -0.001230(     1)
      3  H        1   0.002358(     2)      2  -0.006574(    14)
      4  H        1   0.001225(     3)      2  -0.001121(    15)      3   0.008836(    26)     0
      5  H        2   0.000018(     4)      1  -0.000442(    16)      4  -0.001983(    27)     0
      6  H        2   0.000003(     5)      1  -0.000077(    17)      4  -0.000594(    28)     0
      7  H        1   0.000033(     6)      2   0.000637(    18)      5  -0.000015(    29)     0
      8  H        1   0.005691(     7)      2  -0.017727(    19)      5  -0.021803(    30)     0
      9  H        1   0.000002(     8)      2  -0.000286(    20)      5  -0.000610(    31)     0
     10  H        1   0.000577(     9)      2  -0.000777(    21)      5  -0.002478(    32)     0
     11  H        1  -0.000623(    10)      2   0.000317(    22)      5  -0.001362(    33)     0
     12  C        1  -0.002217(    11)      2   0.006956(    23)      5   0.028502(    34)     0
     13  C        1  -0.000368(    12)     12   0.003339(    24)      2   0.024466(    35)     0
     14  O       12  -0.003600(    13)      1  -0.003051(    25)     13  -0.024784(    36)     0
 -----------------------------------------------------------------------------------------------
 Internal  Forces:  Max     0.028502222 RMS     0.009249539

 GradGradGradGradGradGradGradGradGradGradGradGradGradGradGradGradGradGrad
 Berny optimization.
 Search for a saddle point.
 Step number   4 out of a maximum of  100
 All quantities printed in internal units (Hartrees-Bohrs-Radians)
 Swaping is turned off.
 Update second derivatives using D2CorN and points    1    2    3    4
 ITU=  0  0  0  0
     Eigenvalues ---   -0.08510   0.00116   0.00323   0.00986   0.01817
     Eigenvalues ---    0.02608   0.03411   0.04355   0.05328   0.06330
     Eigenvalues ---    0.07000   0.07383   0.07719   0.10118   0.12655
     Eigenvalues ---    0.20388   0.28841   0.29559   0.31206   0.40207
     Eigenvalues ---    0.48475   0.51657   0.56429   0.56460   0.68024
     Eigenvalues ---    0.97278   1.20839   1.34552   1.44159   2.86008
     Eigenvalues ---    3.43097   6.58118   7.15852  12.59055  20.38463
 Eigenvectors required to have negative eigenvalues:
                          D6        A8        D8        A7        A9
   1                    0.55209   0.49404  -0.46333  -0.32736  -0.32131
                          B7        B9        D7        A12       A5
   1                    0.07260  -0.07094  -0.06507  -0.06093  -0.05574
 RFO step:  Lambda0=5.857384610D-08 Lambda=-4.01110843D-04.
 Linear search not attempted -- option 19 set.
 Variable       Old X    -DE/DX   Delta X   Delta X   Delta X     New X
                                 (Linear)    (Quad)   (Total)
    B1        4.13384   0.00236   0.00000   0.00263   0.00263   4.13647
    B2        4.13488   0.00122   0.00000  -0.00251  -0.00251   4.13237
    B3        1.83068   0.00002   0.00000  -0.00025  -0.00025   1.83043
    B4        1.83065   0.00000   0.00000  -0.00028  -0.00028   1.83037
    B5        2.05481   0.00003   0.00000   0.00068   0.00068   2.05549
    B6        4.76345   0.00569   0.00000  -0.04138  -0.04138   4.72207
[...]
      6  H        2  -0.000001(     5)      1   0.000001(    17)      4  -0.000001(    28)     0
      7  H        1  -0.000001(     6)      2   0.000003(    18)      5  -0.000001(    29)     0
      8  H        1   0.000032(     7)      2  -0.000072(    19)      5  -0.000127(    30)     0
      9  H        1  -0.000005(     8)      2  -0.000015(    20)      5   0.000005(    31)     0
     10  H        1   0.000002(     9)      2   0.000011(    21)      5  -0.000008(    32)     0
     11  H        1  -0.000009(    10)      2   0.000008(    22)      5  -0.000034(    33)     0
     12  C        1  -0.000011(    11)      2   0.000051(    23)      5   0.000191(    34)     0
     13  C        1  -0.000002(    12)     12   0.000033(    24)      2   0.000111(    35)     0
     14  O       12  -0.000019(    13)      1  -0.000010(    25)     13  -0.000118(    36)     0
 -----------------------------------------------------------------------------------------------
 Internal  Forces:  Max     0.000993059 RMS     0.000173598

 GradGradGradGradGradGradGradGradGradGradGradGradGradGradGradGradGradGrad
 Berny optimization.
 Search for a saddle point.
 Step number   1 out of a maximum of    2
 All quantities printed in internal units (Hartrees-Bohrs-Radians)
 Swaping is turned off.
 Second derivative matrix not updated -- analytic derivatives used.
 ITU=  0
     Eigenvalues ---    0.00012   0.00121   0.00363   0.01080   0.01463
     Eigenvalues ---    0.01858   0.02136   0.04214   0.05676   0.06664
     Eigenvalues ---    0.07136   0.07419   0.07829   0.11197   0.12722
     Eigenvalues ---    0.20192   0.28607   0.29727   0.33532   0.36469
     Eigenvalues ---    0.50250   0.53207   0.53226   0.53400   0.77131
     Eigenvalues ---    1.00104   1.23090   1.32857   1.46338   2.72479
     Eigenvalues ---    3.05504   6.02629   6.51580  11.55103  19.02286
 Eigenvectors required to have negative eigenvalues:
                          D6        D4        D9        D2        D7
   1                    0.48119   0.36806   0.36622   0.36496   0.35961
                          D5        D8        D3        A8        B6
   1                    0.32151   0.28454   0.12782   0.09304  -0.08916
 Eigenvalue     1 is   1.22D-04 should be less than     0.000000 Eigenvector:
                          D6        D4        D9        D2        D7
   1                    0.48119   0.36806   0.36622   0.36496   0.35961
                          D5        D8        D3        A8        B6
   1                    0.32151   0.28454   0.12782   0.09304  -0.08916
 Angle between quadratic step and forces=  90.19 degrees.
 Linear search not attempted -- option 19 set.
 Variable       Old X    -DE/DX   Delta X   Delta X   Delta X     New X
                                 (Linear)    (Quad)   (Total)
    B1        4.13773   0.00001   0.00000   0.00004   0.00004   4.13777
    B2        4.13072   0.00001   0.00000  -0.00013  -0.00013   4.13059
    B3        1.83035   0.00000   0.00000   0.00001   0.00001   1.83036
    B4        1.83026   0.00000   0.00000   0.00001   0.00001   1.83027
    B5        2.05542   0.00000   0.00000   0.00000   0.00000   2.05542
    B6        4.73145   0.00003   0.00000   0.00056   0.00056   4.73201
    B7        3.97062  -0.00001   0.00000  -0.00026  -0.00026   3.97036
    B8        4.06319   0.00000   0.00000  -0.00001  -0.00001   4.06318
    B9        3.94970  -0.00001   0.00000   0.00035   0.00035   3.95005
   B10        2.78184  -0.00001   0.00000   0.00004   0.00004   2.78187
   B11        2.77658   0.00000   0.00000  -0.00001  -0.00001   2.77657
   B12        2.75477  -0.00002   0.00000  -0.00007  -0.00007   2.75469
    A1        1.37860  -0.00004   0.00000  -0.00023  -0.00023   1.37837
    A2        1.56222  -0.00002   0.00000  -0.00056  -0.00056   1.56166
    A3        2.19246   0.00000   0.00000  -0.00091  -0.00091   2.19155
    A4        2.19788   0.00000   0.00000  -0.00041  -0.00041   2.19748
    A5        1.49383   0.00000   0.00000   0.00069   0.00069   1.49452
    A6        2.32991  -0.00007   0.00000  -0.00012  -0.00012   2.32979
    A7        2.20713  -0.00002   0.00000   0.00057   0.00057   2.20770
    A8        1.71370   0.00001   0.00000  -0.00073  -0.00073   1.71297
    A9        1.34827   0.00001   0.00000   0.00067   0.00067   1.34893
   A10        1.63643   0.00005   0.00000  -0.00031  -0.00031   1.63612
   A11        2.16747   0.00003   0.00000  -0.00016  -0.00016   2.16730
   A12        1.47531  -0.00001   0.00000   0.00038   0.00038   1.47568
    D1        0.83902   0.00007   0.00000   0.00010   0.00010   0.83913
    D2       -1.15772  -0.00002   0.00000  -0.01709  -0.01709  -1.17482
    D3        2.32176   0.00000   0.00000  -0.01120  -0.01120   2.31056
    D4        2.64185   0.00000   0.00000  -0.01732  -0.01732   2.62454
    D5       -2.33260  -0.00013   0.00000  -0.01655  -0.01655  -2.34915
    D6        0.88602   0.00000   0.00000  -0.01822  -0.01822   0.86780
    D7        0.09592  -0.00001   0.00000  -0.01726  -0.01726   0.07865
    D8        0.89772  -0.00003   0.00000  -0.01665  -0.01665   0.88107
    D9       -1.61426   0.00019   0.00000  -0.01710  -0.01710  -1.63136
   D10       -1.85580   0.00011   0.00000   0.00030   0.00030  -1.85550
   D11        1.46207  -0.00012   0.00000  -0.00004  -0.00004   1.46203
         Item               Value     Threshold  Converged?
 Maximum Force            0.000191     0.000450     YES
 RMS     Force            0.000053     0.000300     YES
 Maximum Displacement     0.018219     0.001800     NO 
 RMS     Displacement     0.007919     0.001200     NO 
 Predicted change in Energy= 2.780128D-07
 GradGradGradGradGradGradGradGradGradGradGradGradGradGradGradGradGradGrad

 1\1\GINC-C58N13\Freq\RB3LYP\6-31++G(d,p)\C3H9O2(1+)\ROOT\27-Feb-2018\1
 \\#N Geom=AllCheck Guess=TCheck SCRF=Check GenChk RB3LYP/6-31++G(d,p) 
 Freq\\H3O-BACK-MIDM\\1,1\C\O,1,2.34823508\H,1,B1,2,A1\H,1,B2,2,A2,3,D1
 ,0\H,2,B3,1,A3,4,D2,0\H,2,B4,1,A4,4,D3,0\H,1,B5,2,A5,5,D4,0\H,1,B6,2,A
 6,5,D5,0\H,1,B7,2,A7,5,D6,0\H,1,B8,2,A8,5,D7,0\H,1,B9,2,A9,5,D8,0\C,1,
 B10,2,A10,5,D9,0\C,1,B11,12,A11,2,D10,0\O,12,B12,1,A12,13,D11,0\\B1=2.
 1895915\B2=2.1858845\B3=0.96857896\B4=0.9685341\B5=1.08768274\B6=2.503
 7759\B7=2.10116127\B8=2.15014602\B9=2.09009286\B10=1.47208479\B11=1.46
 930355\B12=1.4577598\A1=78.98793323\A2=89.50872522\A3=125.61864432\A4=
 125.92952171\A5=85.58992605\A6=133.49412145\A7=126.45900349\A8=98.1877
 0597\A9=77.25008221\A10=93.76037402\A11=124.1866479\A12=84.52883135\D1
 =48.07252737\D2=-66.33270606\D3=133.02693208\D4=151.36703158\D5=-133.6
 4785978\D6=50.76502256\D7=5.49560343\D8=51.4354014\D9=-92.49038386\D10
 =-106.32949113\D11=83.77037231\\Version=EM64L-G09RevB.01\HF=-269.89221
 22\RMSD=1.358e-09\RMSF=3.462e-04\ZeroPoint=0.1200766\Thermal=0.1282325
 \Dipole=-0.026373,0.6482387,0.8038399\DipoleDeriv=0.9790291,0.1268302,
 -0.2424146,0.251997,0.2886103,0.0250132,-0.423125,0.0836484,1.3286491,
 -0.6061742,0.0295325,0.0032578,0.0173427,-0.4947241,-0.0242905,0.00421
 92,-0.0325586,-0.8245519,0.0573751,-0.0225,-0.0281934,-0.0412446,0.059
 5071,-0.017566,-0.0178676,0.0119555,0.0538427,0.0908288,-0.0252909,-0.
 0085741,0.0030416,0.0269704,0.0222156,-0.0060801,-0.0038648,0.0714317,
 0.3471845,-0.0229922,-0.0055899,-0.0069803,0.3092143,-0.0812931,0.0247
 993,-0.0180641,0.2288668,0.3554565,-0.005945,0.0256209,-0.0121474,0.32
 84225,0.0851462,0.0229568,-0.004294,0.2179923,0.0427603,-0.0250231,0.0
 239193,-0.0260813,0.0494221,-0.0008991,0.0089221,-0.0024183,0.0243739,
 0.3254272,-0.0112582,-0.0502403,0.0833709,0.282411,-0.1556726,-0.05780
 63,-0.0551181,0.3215847,0.1661134,0.0065687,0.0259809,-0.0902882,0.073
 4277,0.0339755,0.0025127,0.0362605,0.091444,0.0587592,0.0553901,-0.003
 9912,0.0049892,0.0077449,0.0023182,-0.0007602,0.0092442,0.1062574,0.17
 12731,0.0182154,0.0336417,-0.0693401,0.0742015,-0.0526551,0.0421132,-0
 .0307131,0.0879413,0.291092,-0.0145296,-0.1237762,-0.1215609,0.2691915
 ,0.0001108,0.1912415,-0.1188268,0.3677798,-0.5319844,-0.1270097,-0.091
 8168,-0.0133229,0.0285462,-0.0170351,-0.1374146,-0.0290049,-0.1213985,
 -0.7471406,0.0180118,0.4421758,0.0202242,-0.3029455,0.180632,0.3462891
 ,0.1537544,-0.9542134\Polar=50.2440269,1.7474911,39.8670909,-4.6778348
 ,0.5446292,52.9695304\PG=C01 [X(C3H9O2)]\NImag=1\\0.55235138,-0.021091
 15,0.66080198,0.05841034,0.05362652,0.13256443,-0.00481495,-0.00297986
 ,-0.00100012,0.07025860,-0.00029215,-0.01288185,0.00325634,0.16663698,
 0.65435315,0.00188366,0.00217501,0.01049290,-0.09041860,0.02395712,0.4
 3851829,-0.02018574,-0.01852464,-0.01092155,0.00093090,0.00055269,-0.0
 0036813,0.20991957,0.01094946,0.00735875,0.00544022,0.00036957,-0.0002
 6697,0.00008584,0.11256301,0.13386282,0.00830526,0.00928582,0.00364910
 ,-0.00027665,-0.00014783,-0.00009919,0.10318342,0.06943524,0.11892752,
 -0.00250798,0.03338782,-0.00022899,-0.00003631,-0.00047091,-0.00017409
 ,0.00518510,-0.02180955,0.00278238,0.05583194,0.00039215,-0.00800230,-
 0.00003633,-0.00004706,0.00058616,-0.00016279,0.00253138,-0.01007162,0
 .00133937,-0.02561860,0.35081012,0.00027782,-0.01106577,-0.00012618,-0
 .00016983,0.00075300,0.00030263,0.00204451,-0.01359210,0.00513262,0.00
 392953,-0.02999314,0.05833658,0.00037894,0.00229427,0.00301281,-0.0593
 2744,-0.13418627,0.09287295,0.00007280,-0.00014930,0.00013548,0.000045
 04,0.00017997,0.00023841,0.06052032,0.00068292,0.00135716,0.00698249,-
 0.12075071,-0.29842756,0.17033348,-0.00016833,-0.00000868,0.00001713,0
 .00015091,-0.00010317,-0.00021543,0.13333305,0.32149454,0.00216334,0.0
 0300753,0.00488457,0.10702715,0.22380601,-0.21061130,-0.00008758,0.000
 01232,0.00006726,0.00026422,-0.00022754,-0.00015777,-0.09873215,-0.200
 15470,0.19686962,-0.00112847,0.00025986,-0.00044251,-0.00778319,-0.029
 52112,-0.00253458,-0.00021773,0.00009459,0.00037084,-0.00003379,-0.000
 09182,-0.00012202,-0.00049571,-0.01346886,-0.00954086,0.00943925,0.000
 26318,0.00151611,-0.00803164,-0.04358207,-0.34734152,-0.19479551,-0.00
 001974,0.00015408,-0.00003106,0.00001680,-0.00006366,-0.00011563,-0.00
 003292,-0.02446704,-0.02543636,0.04303589,0.37024521,0.00091476,-0.002
 66835,0.00581529,-0.01681788,-0.24840842,-0.21325726,0.00030185,-0.000
 12330,-0.00010409,-0.00004416,0.00001235,0.00015311,0.00422223,0.02660
 113,0.01327224,0.01246616,0.22374925,0.19953753,-0.05841510,0.01752515
 ,0.00374290,-0.00051706,-0.00085882,0.00077944,0.00127977,-0.00018932,
 -0.00055563,-0.00431352,0.00046141,0.00211069,-0.00004113,0.00014126,0
 .00029528,0.00046769,-0.00003354,-0.00006445,0.06076470,0.02174368,-0.
 35043151,-0.02637668,0.00016869,0.00165579,-0.00091960,-0.00001158,0.0
 0091305,-0.00030156,0.00112969,0.00095753,-0.00021925,-0.00022080,-0.0
 0016299,-0.00047528,0.00006528,0.00014735,0.00030901,-0.02114943,0.359
 25356,-0.00563797,-0.01973032,-0.04298251,0.00075303,0.00324565,-0.004
 98824,0.00056679,-0.00015809,0.00007958,-0.00120626,0.00056643,0.00054
 575,-0.00070849,-0.00060154,-0.00098739,-0.00014292,0.00073367,-0.0010
 9780,-0.00104594,0.02758140,0.03556302,-0.00093491,-0.00781256,-0.0013
 2219,0.00009861,0.00036156,-0.00027452,0.00166985,0.00053812,-0.001320
 91,0.00001182,0.00135326,-0.00403994,-0.00007322,-0.00003985,-0.000011
 05,0.00008171,-0.00001639,0.00014112,-0.00018614,0.00095906,-0.0001465
 0,0.13052013,-0.00619889,0.00451335,0.00554009,0.00017984,-0.00041052,
 -0.00147720,0.00019341,0.00262120,-0.00158602,-0.00018476,0.00057981,0
 .00256413,-0.00004165,-0.00025000,-0.00013018,0.00010337,0.00040474,-0
 .00027083,0.00050662,0.00014170,-0.00007500,0.20433994,0.36587958,-0.0
 0121615,0.00559213,-0.00478465,-0.00023110,-0.00073019,0.00010561,-0.0
 0142342,0.00011255,0.00213132,0.00114917,-0.00051373,-0.00466818,0.000
 02496,0.00010360,0.00004183,0.00017076,0.00006926,-0.00023258,0.000927
 40,-0.00069054,0.00054126,-0.04409613,-0.09014212,0.06967706,-0.020582
 57,0.00868032,-0.02504510,0.00026190,0.00005882,0.00119911,-0.00082774
 ,0.00011919,0.00036376,0.00024490,-0.00009057,-0.00000420,-0.00008125,
 0.00002311,-0.00001108,0.00005765,-0.00004075,0.00010229,0.00056061,-0
 .00035344,0.00135026,-0.00021305,0.00025242,0.00025610,0.08390923,-0.0
 0124238,0.00754512,-0.01637186,-0.00017491,-0.00045001,-0.00143896,-0.
 00014226,0.00024087,-0.00017037,-0.00029649,0.00008329,0.00000875,-0.0
 0028620,-0.00035658,-0.00030901,-0.00020001,0.00038542,-0.00035410,0.0
 0034678,0.00040420,0.00104365,-0.00037461,0.00059657,-0.00006928,-0.03
 013284,0.07085088,-0.00141610,0.00026883,-0.00549596,-0.00035172,-0.00
 054537,-0.00007687,-0.00000618,0.00004842,0.00012805,0.00003022,-0.000
 03366,0.00002222,0.00009020,-0.00000173,0.00017758,-0.00021071,0.00017
 290,-0.00006166,-0.00054018,-0.00034464,0.00135201,0.00036951,-0.00028
 992,0.00002943,0.09801375,-0.07688344,0.26547664,0.00425925,-0.0341221
 8,-0.00108339,0.00020414,0.00023840,0.00016524,0.00026847,0.00021987,-
 0.00025334,-0.00039205,0.00066258,-0.00013984,0.00004997,0.00002557,-0
 .00014374,-0.00008197,-0.00002486,0.00007840,-0.00451087,-0.00210832,-
 0.00164304,0.00007600,0.00007960,-0.00001586,-0.00228269,0.01138670,0.
 00223008,0.06123855,0.00131304,-0.01621119,-0.00068126,0.00005257,0.00
 039909,-0.00000819,0.00021542,0.00028683,-0.00024071,-0.00089448,0.000
 34925,0.00025482,-0.00007846,-0.00016360,-0.00028324,0.00001113,-0.000
 03959,0.00005455,-0.00182466,0.00061795,-0.00018511,0.00008160,0.00004
 051,0.00004086,0.00107973,-0.00637495,-0.00108644,-0.04433414,0.344378
 25,0.00130436,-0.00832794,-0.00133107,-0.00010556,0.00044186,-0.000001
 87,0.00005682,0.00000669,-0.00000073,-0.00014256,0.00013571,0.00020980
 ,-0.00008006,-0.00036992,-0.00036308,0.00007113,-0.00001818,0.00003227
 ,-0.00171624,-0.00074222,0.00309258,-0.00004756,-0.00014435,-0.0002102
 9,-0.00320765,0.02695230,0.00260808,0.00131937,0.00525049,0.04520509,-
 0.02502920,0.00560473,0.02056833,0.00130804,0.00076194,0.00131377,-0.0
 0074526,0.00016417,0.00056760,0.00026497,-0.00016611,-0.00012392,-0.00
 028704,0.00009517,-0.00070943,0.00015563,-0.00024307,0.00006233,0.0010
 9756,-0.00013874,-0.00140228,-0.00003393,-0.00007191,-0.00020039,0.008
 74333,-0.00194128,-0.00841527,-0.00205683,0.00031106,0.00111239,0.1850
 2290,-0.00340538,0.00519756,0.01433072,0.00039559,-0.00056515,-0.00101
 020,-0.00027998,0.00036160,0.00004558,-0.00013364,0.00018707,-0.000225
 67,0.00001950,0.00015574,-0.00001025,-0.00042628,0.00027388,-0.0003674
 3,0.00060250,0.00064625,-0.00061453,-0.00036802,0.00060486,0.00001800,
 -0.00548363,0.00138193,0.00610076,0.02099584,-0.00341628,-0.02077199,-
 0.04646087,0.06233775,-0.00612986,0.00212271,0.00427375,0.00051376,-0.
 00059809,-0.00135193,-0.00049340,0.00004134,0.00033891,0.00004174,-0.0
 0003913,-0.00002703,-0.00090647,0.00011442,-0.00068619,-0.00053650,0.0
 0012392,-0.00040928,0.00035486,-0.00001405,0.00080029,0.00009640,-0.00
 016399,-0.00005940,0.02019508,-0.00567632,-0.02006548,-0.00281796,0.00
 073711,0.00074368,-0.14010469,0.04941993,0.17862399,-0.26483718,0.0746
 8288,-0.00431326,-0.00038643,-0.00166818,-0.00347120,-0.20341414,-0.11
 180348,-0.08939793,-0.05841702,0.02172611,-0.00305906,-0.00011802,-0.0
 0081684,-0.00053904,0.00107887,0.00096060,-0.00116342,-0.00296181,-0.0
 0107638,0.00499405,0.00255186,-0.00053039,0.01979169,-0.00074840,0.001
 24534,-0.00051129,0.00248598,0.00162856,-0.00042334,-0.00398221,-0.000
 75735,-0.00241436,0.59826138,0.08131779,-0.12658022,-0.02102426,-0.001
 28893,-0.00081458,0.00372228,-0.10562454,-0.13821892,-0.06455058,0.018
 62576,-0.33627473,0.01325235,-0.00053628,0.00128154,0.00122377,0.00013
 743,-0.00064331,0.00074979,0.03076567,-0.00827751,0.00540772,0.0126403
 9,-0.00700247,0.03137228,-0.00327417,-0.00219120,0.00003117,-0.0014797
 6,0.00128660,0.00036211,-0.00135454,-0.00099181,0.00009479,0.02034835,
 0.68117439,-0.03547384,-0.01523595,0.01048909,0.00107851,-0.00049814,-
 0.00840132,-0.09623895,-0.07106983,-0.10459363,-0.00533011,0.02424993,
 -0.04608411,0.00050364,-0.00107684,-0.00171111,0.00072697,0.00073534,-
 0.00167461,0.00105856,0.00148736,0.00186889,-0.00187118,-0.01036370,-0
 .01328885,-0.00185973,0.00099303,-0.00117237,0.00104895,-0.00000069,-0
 .00053557,-0.00211472,0.00070523,-0.00212802,0.11483109,0.02039788,0.3
 5728926,-0.17441241,-0.06772050,-0.02712499,-0.00018866,-0.00185363,-0
 .00654969,-0.00161180,0.00099477,0.00175377,0.00169024,-0.00094824,-0.
 00105373,-0.00080738,-0.00065140,-0.00093179,-0.00077063,0.00118155,-0
 .00131368,0.00647707,0.00369380,-0.00013996,-0.00174378,0.00214345,0.0
 0004289,-0.07059774,0.02385914,-0.09188245,-0.05864271,0.04273826,0.00
 095884,-0.16650406,0.03886747,0.13122368,-0.01731534,-0.01401697,-0.00
 168894,0.49957312,-0.08255370,-0.15357120,-0.02428356,0.00045101,0.001
 34367,0.00035730,0.00342860,-0.00114188,-0.00125551,0.00081568,0.00125
 125,0.00074538,-0.00034119,0.00024653,-0.00021678,0.00013212,-0.000362
 06,0.00050705,-0.02635969,-0.01006258,-0.00669054,0.00052665,-0.000615
 28,-0.00021944,0.02984955,-0.07216866,0.07201447,0.04815157,-0.3212883
 4,-0.00309198,0.04411388,-0.06577132,-0.04633945,0.00926313,0.01255792
 ,0.00413410,-0.02689132,0.60875730,-0.03588397,-0.01387447,-0.08198246
 ,-0.00241839,-0.00403696,-0.00462779,0.00018722,-0.00004853,-0.0007104
 8,0.00045193,0.00007123,-0.00008469,-0.00026930,-0.00004784,0.00019785
 ,-0.00075863,0.00111999,-0.00098103,-0.00188405,-0.00023622,0.00471173
 ,0.00075557,0.00048359,0.00102231,-0.09348767,0.06929777,-0.24108694,0
 .00096754,-0.00410614,-0.04801040,0.13232710,-0.04772349,-0.15873841,0
 .00871078,-0.00886868,0.00890365,-0.00920376,0.00485609,0.50740236,0.0
 1585896,0.00981586,-0.01425227,-0.00000816,0.00024069,0.00557664,0.007
 67595,0.00793890,-0.02565803,0.00242664,-0.00034446,0.00011157,0.00016
 412,0.00144400,0.00095672,-0.00076932,-0.00146468,0.00111445,0.0002982
 2,-0.00270150,0.00440923,-0.13182495,-0.20077106,0.02482009,0.00155582
 ,-0.00204697,0.00260015,-0.00061523,-0.00029964,0.00090008,0.00204611,
 -0.00356573,0.00097772,-0.05219753,-0.03626019,0.02532973,-0.01514592,
 -0.00058629,0.00050563,0.17053529,-0.00187856,-0.02061177,0.00762920,0
 .00056930,0.00282030,-0.00081857,0.00528657,0.00390887,-0.01183949,-0.
 00471822,-0.00028900,0.03784857,0.00004627,-0.00059589,-0.00080631,-0.
 00013156,-0.00020961,0.00020931,0.00006607,0.00419720,-0.01052338,-0.2
 1218915,-0.36710403,0.05505662,-0.00068774,0.00005312,0.00054866,0.000
 30913,0.00013547,0.00031742,-0.00067445,-0.00040208,0.00017681,-0.0132
 0235,-0.07530569,0.04554227,-0.00139637,0.00082464,0.00311365,0.228601
 07,0.45257847,0.01249833,-0.00517575,-0.03546630,0.00241741,-0.0004949
 8,-0.00600367,0.00319863,0.00980923,-0.02494625,-0.00152301,0.00463130
 ,-0.01355475,-0.00040420,-0.00168424,-0.00099410,0.00048286,0.00172403
 ,-0.00099211,-0.00346265,0.00094229,0.00150084,0.05176738,0.09605551,-
 0.05030486,0.00213508,0.00297785,-0.00183474,0.00028760,0.00025395,-0.
 00143849,-0.00288080,0.00010334,-0.00131488,-0.04303471,0.01782938,-0.
 19896128,0.00590979,-0.00051714,0.01398430,-0.02739171,-0.12645477,0.3
 2032629\\-0.00011807,-0.00004106,-0.00200097,0.00012161,0.00007484,0.0
 0099247,-0.00001259,-0.00005162,-0.00001319,0.00000308,0.00001128,-0.0
 0000544,-0.00000130,-0.00000018,0.00000066,-0.00000057,0.00000120,-0.0
 0000007,0.00000050,0.00000126,0.00000142,-0.00001995,-0.00004614,0.000
 01120,-0.00000164,-0.00000191,-0.00000632,-0.00000115,0.00000216,0.000
 00300,-0.00001001,0.00000649,0.00000393,0.00001709,0.00001284,0.000024
 92,0.00000505,-0.00001133,0.00000004,0.00001796,0.00004218,-0.00001166
 \\\@


 YE HAVE SOWN MUCH, AND BRING IN LITTLE.
 YE EAT, BUT YE HAVE NOT ENOUGH.
 YE DRINK, BUT YE ARE NOT FILLED WITH DRINK.
 YE CLOTHE YOU, BUT THERE IS NONE WARM.
 AND HE THAT EARNETH WAGES EARNETH WAGES TO PUT
 IT INTO A BAG WITH HOLES.
                                     HAGGAI I,6
 Job cpu time:  0 days  0 hours  8 minutes 52.5 seconds.
 File lengths (MBytes):  RWF=   1248 Int=      0 D2E=      0 Chk=     32 Scr=     32
 Normal termination of Gaussian 09 at Tue Feb 27 15:39:17 2018.
