 Entering Gaussian System, Link 0=g09
 Input=OH-mid-2.gjf
 Output=OH-mid-2.log
 Initial command:
 /share/home/zxchen/g09/l1.exe /scratch/zxchen/Gau-29487.inp -scrdir=/scratch/zxchen/
 Entering Link 1 = /share/home/zxchen/g09/l1.exe PID=     29488.
  
 Copyright (c) 1988,1990,1992,1993,1995,1998,2003,2009,2010,
            Gaussian, Inc.  All Rights Reserved.
  
 This is part of the Gaussian(R) 09 program.  It is based on
 the Gaussian(R) 03 system (copyright 2003, Gaussian, Inc.),
 the Gaussian(R) 98 system (copyright 1998, Gaussian, Inc.),
 the Gaussian(R) 94 system (copyright 1995, Gaussian, Inc.),
 the Gaussian 92(TM) system (copyright 1992, Gaussian, Inc.),
 the Gaussian 90(TM) system (copyright 1990, Gaussian, Inc.),
 the Gaussian 88(TM) system (copyright 1988, Gaussian, Inc.),
 the Gaussian 86(TM) system (copyright 1986, Carnegie Mellon
 University), and the Gaussian 82(TM) system (copyright 1983,
 Carnegie Mellon University). Gaussian is a federally registered
 trademark of Gaussian, Inc.
  
 This software contains proprietary and confidential information,
 including trade secrets, belonging to Gaussian, Inc.
  
 This software is provided under written license and may be
 used, copied, transmitted, or stored only in accord with that
 written license.
  
 The following legend is applicable only to US Government
 contracts under FAR:
  
                    RESTRICTED RIGHTS LEGEND
  
 Use, reproduction and disclosure by the US Government is
 subject to restrictions as set forth in subparagraphs (a)
 and (c) of the Commercial Computer Software - Restricted
 Rights clause in FAR 52.227-19.
  
 Gaussian, Inc.
 340 Quinnipiac St., Bldg. 40, Wallingford CT 06492
  
  
 ---------------------------------------------------------------
 Warning -- This program may not be used in any manner that
 competes with the business of Gaussian, Inc. or will provide
 assistance to any competitor of Gaussian, Inc.  The licensee
 of this program is prohibited from giving any competitor of
 Gaussian, Inc. access to this program.  By using this program,
 the user acknowledges that Gaussian, Inc. is engaged in the
 business of creating and licensing software in the field of
 computational chemistry and represents and warrants to the
 licensee that it is not a competitor of Gaussian, Inc. and that
 it will not use this program in any manner prohibited above.
 ---------------------------------------------------------------
  

 Cite this work as:
 Gaussian 09, Revision B.01,
 M. J. Frisch, G. W. Trucks, H. B. Schlegel, G. E. Scuseria, 
 M. A. Robb, J. R. Cheeseman, G. Scalmani, V. Barone, B. Mennucci, 
 G. A. Petersson, H. Nakatsuji, M. Caricato, X. Li, H. P. Hratchian, 
 A. F. Izmaylov, J. Bloino, G. Zheng, J. L. Sonnenberg, M. Hada, 
 M. Ehara, K. Toyota, R. Fukuda, J. Hasegawa, M. Ishida, T. Nakajima, 
 Y. Honda, O. Kitao, H. Nakai, T. Vreven, J. A. Montgomery, Jr., 
 J. E. Peralta, F. Ogliaro, M. Bearpark, J. J. Heyd, E. Brothers, 
 K. N. Kudin, V. N. Staroverov, T. Keith, R. Kobayashi, J. Normand, 
 K. Raghavachari, A. Rendell, J. C. Burant, S. S. Iyengar, J. Tomasi, 
 M. Cossi, N. Rega, J. M. Millam, M. Klene, J. E. Knox, J. B. Cross, 
 V. Bakken, C. Adamo, J. Jaramillo, R. Gomperts, R. E. Stratmann, 
 O. Yazyev, A. J. Austin, R. Cammi, C. Pomelli, J. W. Ochterski, 
 R. L. Martin, K. Morokuma, V. G. Zakrzewski, G. A. Voth, 
 P. Salvador, J. J. Dannenberg, S. Dapprich, A. D. Daniels, 
 O. Farkas, J. B. Foresman, J. V. Ortiz, J. Cioslowski, 
 and D. J. Fox, Gaussian, Inc., Wallingford CT, 2010.
 
 ******************************************
 Gaussian 09:  EM64L-G09RevB.01 12-Aug-2010
                 9-Mar-2018 
 ******************************************
 %chk=OH-mid-10.chk
 %nprocshared=24
 Will use up to   24 processors via shared memory.
 ----------------------------------------------------------------------
 # field=z-10 opt=(cartesian,calcall,ts,noeigen,z-matrix) freq b3lyp/6-
 31++g(d,p) nosymm
 ----------------------------------------------------------------------
 1/5=1,10=4,11=1,14=-1,18=20,26=3,38=1/1,3;
 2/9=110,12=2,15=1,17=6,18=5,40=1/2;
 3/5=1,6=6,7=1111,11=2,14=3,15=-10,16=1,25=1,30=1,71=2,74=-5/1,2,3;
 4//1;
 5/5=2,38=5/2;
 8/6=4,10=90,11=11/1;
 11/6=1,8=1,9=11,15=111,16=1,31=1/1,2,10;
 10/6=1,31=1/2;
 6/7=2,8=2,9=2,10=2,18=1,28=1/1;
 7/10=1,25=1,30=1/1,2,3,16;
 1/5=1,10=4,11=1,14=-1,18=20/3(3);
 2/9=110,15=1/2;
 7/8=1,9=1,25=1,30=1,44=-1/16;
 99//99;
 2/9=110,15=1/2;
 3/5=1,6=6,7=1111,11=2,14=3,15=-10,16=1,25=1,30=1,71=2,74=-5/1,2,3;
 4/5=5,16=3/1;
 5/5=2,38=5/2;
 8/6=4,10=90,11=11/1;
 11/6=1,8=1,9=11,15=111,16=1,31=1/1,2,10;
 10/6=1,31=1/2;
 7/10=1,25=1,30=1/1,2,3,16;
 1/5=1,10=4,11=1,14=-1,18=20/3(-8);
 2/9=110,15=1/2;
 6/7=2,8=2,9=2,10=2,18=1,19=2,28=1/1;
 7/8=1,9=1,25=1,30=1,44=-1/16;
 99//99;
 -----------
 OH-BACK-MID
 -----------
 Symbolic Z-matrix:
 Charge = -1 Multiplicity = 1
 C
 O                    1     2.39299 
 C                    1    B1       2    A1
 C                    1    B2       3    A2       2    D1       0
 H                    2    B3       1    A3       3    D2       0
 H                    1    B4       3    A4       4    D3       0
 H                    3    B5       1    A5       4    D4       0
 H                    3    B6       1    A6       4    D5       0
 H                    4    B7       1    A7       3    D6       0
 H                    4    B8       1    A8       3    D7       0
 H                    4    B9       1    A9       3    D8       0
 O                    3    B10      1    A10      4    D9       0
       Variables:
  B1                    1.45622                  
  B2                    1.49691                  
  B3                    0.96                     
  B4                    1.07                     
  B5                    1.07                     
  B6                    1.07                     
  B7                    1.07                     
  B8                    1.07                     
  B9                    1.07                     
  B10                   1.43                     
  A1                  112.28204                  
  A2                  122.71681                  
  A3                  125.37979                  
  A4                  116.61371                  
  A5                  116.61591                  
  A6                  115.98517                  
  A7                  111.38903                  
  A8                  110.8166                   
  A9                  109.58946                  
  A10                  81.06553                  
  D1                 -144.17663                  
  D2                  111.97191                  
  D3                 -162.50297                  
  D4                 -164.08382                  
  D5                  -30.92606                  
  D6                   17.18344                  
  D7                 -104.10951                  
  D8                  137.73808                  
  D9                   82.41656                  
 

 GradGradGradGradGradGradGradGradGradGradGradGradGradGradGradGradGradGrad
 Berny optimization.
 Initialization pass.
                           ----------------------------
                           !    Initial Parameters    !
                           ! (Angstroms and Degrees)  !
 --------------------------                            --------------------------
 ! Name  Definition              Value          Derivative Info.                !
 --------------------------------------------------------------------------------
 ! R1    R(1,2)                  2.393          calculate D2E/DX2 analytically  !
 ! R2    R(1,3)                  1.4562         calculate D2E/DX2 analytically  !
 ! R3    R(1,4)                  1.4969         calculate D2E/DX2 analytically  !
 ! R4    R(1,6)                  1.07           calculate D2E/DX2 analytically  !
 ! R5    R(2,5)                  0.96           calculate D2E/DX2 analytically  !
 ! R6    R(2,6)                  1.863          calculate D2E/DX2 analytically  !
 ! R7    R(3,7)                  1.07           calculate D2E/DX2 analytically  !
 ! R8    R(3,8)                  1.07           calculate D2E/DX2 analytically  !
 ! R9    R(3,12)                 1.43           calculate D2E/DX2 analytically  !
 ! R10   R(4,9)                  1.07           calculate D2E/DX2 analytically  !
 ! R11   R(4,10)                 1.07           calculate D2E/DX2 analytically  !
 ! R12   R(4,11)                 1.07           calculate D2E/DX2 analytically  !
 ! A1    A(2,1,3)              112.282          calculate D2E/DX2 analytically  !
 ! A2    A(2,1,4)              115.2339         calculate D2E/DX2 analytically  !
 ! A3    A(3,1,4)              122.7168         calculate D2E/DX2 analytically  !
 ! A4    A(3,1,6)              116.6137         calculate D2E/DX2 analytically  !
 ! A5    A(4,1,6)              118.3777         calculate D2E/DX2 analytically  !
 ! A6    A(1,2,5)              125.3798         calculate D2E/DX2 analytically  !
 ! A7    A(5,2,6)              100.0416         calculate D2E/DX2 analytically  !
 ! A8    A(1,3,7)              116.6159         calculate D2E/DX2 analytically  !
 ! A9    A(1,3,8)              115.9852         calculate D2E/DX2 analytically  !
 ! A10   A(1,3,12)              81.0655         calculate D2E/DX2 analytically  !
 ! A11   A(7,3,8)              110.6963         calculate D2E/DX2 analytically  !
 ! A12   A(7,3,12)             114.9445         calculate D2E/DX2 analytically  !
 ! A13   A(8,3,12)             114.828          calculate D2E/DX2 analytically  !
 ! A14   A(1,4,9)              111.389          calculate D2E/DX2 analytically  !
 ! A15   A(1,4,10)             110.8166         calculate D2E/DX2 analytically  !
 ! A16   A(1,4,11)             109.5895         calculate D2E/DX2 analytically  !
 ! A17   A(9,4,10)             108.812          calculate D2E/DX2 analytically  !
 ! A18   A(9,4,11)             108.8852         calculate D2E/DX2 analytically  !
 ! A19   A(10,4,11)            107.2381         calculate D2E/DX2 analytically  !
 ! D1    D(3,1,2,5)            111.9719         calculate D2E/DX2 analytically  !
 ! D2    D(4,1,2,5)           -101.0105         calculate D2E/DX2 analytically  !
 ! D3    D(2,1,3,7)            -19.9072         calculate D2E/DX2 analytically  !
 ! D4    D(2,1,3,8)            113.2506         calculate D2E/DX2 analytically  !
 ! D5    D(2,1,3,12)          -133.4068         calculate D2E/DX2 analytically  !
 ! D6    D(4,1,3,7)           -164.0838         calculate D2E/DX2 analytically  !
 ! D7    D(4,1,3,8)            -30.9261         calculate D2E/DX2 analytically  !
 ! D8    D(4,1,3,12)            82.4166         calculate D2E/DX2 analytically  !
 ! D9    D(6,1,3,7)             33.4132         calculate D2E/DX2 analytically  !
 ! D10   D(6,1,3,8)            166.571          calculate D2E/DX2 analytically  !
 ! D11   D(6,1,3,12)           -80.0864         calculate D2E/DX2 analytically  !
 ! D12   D(2,1,4,9)           -126.0385         calculate D2E/DX2 analytically  !
 ! D13   D(2,1,4,10)           112.6685         calculate D2E/DX2 analytically  !
 ! D14   D(2,1,4,11)            -5.4839         calculate D2E/DX2 analytically  !
 ! D15   D(3,1,4,9)             17.1834         calculate D2E/DX2 analytically  !
 ! D16   D(3,1,4,10)          -104.1095         calculate D2E/DX2 analytically  !
 ! D17   D(3,1,4,11)           137.7381         calculate D2E/DX2 analytically  !
 ! D18   D(6,1,4,9)            179.3944         calculate D2E/DX2 analytically  !
 ! D19   D(6,1,4,10)            58.1014         calculate D2E/DX2 analytically  !
 ! D20   D(6,1,4,11)           -60.051          calculate D2E/DX2 analytically  !
 ! D21   D(1,2,5,6)             -2.395          calculate D2E/DX2 analytically  !
 --------------------------------------------------------------------------------
 Trust Radius=3.00D-01 FncErr=1.00D-07 GrdErr=1.00D-06
 Number of steps in this run=     62 maximum allowed number of steps=    100.
 Search for a saddle point of order  1.
 GradGradGradGradGradGradGradGradGradGradGradGradGradGradGradGradGradGrad

                          Input orientation:                          
 ---------------------------------------------------------------------
 Center     Atomic      Atomic             Coordinates (Angstroms)
 Number     Number       Type             X           Y           Z
 ---------------------------------------------------------------------
      1          6           0        0.000000    0.000000    0.000000
      2          8           0        0.000000    0.000000    2.392987
      3          6           0        1.347485    0.000000   -0.552151
      4          6           0       -1.135845   -0.737131   -0.638157
      5          1           0       -0.292856    0.725868    2.948821
      6          1           0       -0.226871    0.767206    0.710510
      7          1           0        2.132099    0.325724    0.098376
      8          1           0        1.637323   -0.883718   -1.081241
      9          1           0       -0.783760   -1.469054   -1.334737
     10          1           0       -1.788940   -0.060768   -1.148941
     11          1           0       -1.714460   -1.227480    0.116603
     12          8           0        0.773913    1.026280   -1.366193
 ---------------------------------------------------------------------
                    Distance matrix (angstroms):
                    1          2          3          4          5
     1  C    0.000000
     2  O    2.392987   0.000000
     3  C    1.456223   3.238758   0.000000
     4  C    1.496913   3.319840   2.591850   0.000000
     5  H    3.050933   0.960000   3.933752   3.964518   0.000000
     6  H    1.070000   1.863010   2.159054   2.215438   2.239665
     7  H    2.159078   3.149155   1.070000   3.514484   3.763716
     8  H    2.151945   3.941071   1.070000   2.812165   4.749500
     9  H    2.133992   4.082686   2.704213   1.070000   4.838134
    10  H    2.126985   3.968533   3.193277   1.070000   4.432687
    11  H    2.111795   3.102903   3.365925   1.070000   3.722632
    12  O    1.875813   3.972861   1.430000   2.699412   4.455063
                    6          7          8          9         10
     6  H    0.000000
     7  H    2.476762   0.000000
     8  H    3.067758   1.760412   0.000000
     9  H    3.081237   3.711775   2.503702   0.000000
    10  H    2.565767   4.132762   3.524359   1.740166   0.000000
    11  H    2.558207   4.148348   3.575955   1.740962   1.722894
    12  O    2.319780   2.116698   2.115364   2.941772   2.792326
                   11         12
    11  H    0.000000
    12  O    3.670166   0.000000
 Symmetry turned off by external request.
 Stoichiometry    C3H7O2(1-)
 Framework group  C1[X(C3H7O2)]
 Deg. of freedom    30
 Full point group                 C1      NOp   1
 Rotational constants (GHZ):      6.1906500      3.0744045      2.3470682
 Standard basis: 6-31++G(d,p) (6D, 7F)
 The following finite field(s) will be applied:
 An electric field of              0.0000  0.0000 -0.0010
 Integral buffers will be    131072 words long.
 Raffenetti 2 integral format.
 Two-electron integral symmetry is turned off.
   137 basis functions,   216 primitive gaussians,   137 cartesian basis functions
    21 alpha electrons       21 beta electrons
       nuclear repulsion energy       171.8431025930 Hartrees.
 NAtoms=   12 NActive=   12 NUniq=   12 SFac= 1.00D+00 NAtFMM=   50 NAOKFM=F Big=F
 One-electron integrals computed using PRISM.
 PrsmSu:  requested number of processors reduced to:  10 ShMem   1 Linda.
 NBasis=   137 RedAO= T  NBF=   137
 NBsUse=   137 1.00D-06 NBFU=   137
 The nuclear repulsion energy is now       171.8404911767 hartrees.
 Harris functional with IExCor=  402 diagonalized for initial guess.
 ExpMin= 3.60D-02 ExpMax= 5.48D+03 ExpMxC= 8.25D+02 IAcc=3 IRadAn=         0 AccDes= 0.00D+00
 HarFok:  IExCor=  402 AccDes= 0.00D+00 IRadAn=         0 IDoV= 1
 ScaDFX=  1.000000  1.000000  1.000000  1.000000
 FoFCou: FMM=F IPFlag=           0 FMFlag=      100000 FMFlg1=           0
         NFxFlg=           0 DoJE=T BraDBF=F KetDBF=T FulRan=T
         Omega=  0.000000  0.000000  1.000000  0.000000  0.000000 ICntrl=     500 IOpCl=  0
         NMat0=    1 NMatS0=    1 NMatT0=    0 NMatD0=    1 NMtDS0=    0 NMtDT0=    0
         I1Cent=           4 NGrid=           0.
 Symmetry not used in FoFCou.
 Requested convergence on RMS density matrix=1.00D-08 within 128 cycles.
 Requested convergence on MAX density matrix=1.00D-06.
 Requested convergence on             energy=1.00D-06.
 No special actions if energy rises.
 EnCoef did     3 forward-backward iterations
 SCF Done:  E(RB3LYP) =  -268.911868074     A.U. after   16 cycles
             Convg  =    0.3802D-08             -V/T =  2.0087
 Range of M.O.s used for correlation:     1   137
 NBasis=   137 NAE=    21 NBE=    21 NFC=     0 NFV=     0
 NROrb=    137 NOA=    21 NOB=    21 NVA=   116 NVB=   116

 **** Warning!!: The largest alpha MO coefficient is  0.32937708D+02

 PrsmSu:  requested number of processors reduced to:  10 ShMem   1 Linda.
 PrsmSu:  requested number of processors reduced to:  18 ShMem   1 Linda.
 Symmetrizing basis deriv contribution to polar:
 IMax=3 JMax=2 DiffMx= 0.00D+00
 G2DrvN: will do     4 centers at a time, making    4 passes doing MaxLOS=2.
 Estimated number of processors is:   15
 Calling FoFCou, ICntrl=  3107 FMM=F I1Cent=   0 AccDes= 0.00D+00.
 CoulSu:  requested number of processors reduced to:  15 ShMem   1 Linda.
 Calling FoFCou, ICntrl=  3107 FMM=F I1Cent=   0 AccDes= 0.00D+00.
 CoulSu:  requested number of processors reduced to:  15 ShMem   1 Linda.
 Calling FoFCou, ICntrl=  3107 FMM=F I1Cent=   0 AccDes= 0.00D+00.
 CoulSu:  requested number of processors reduced to:  15 ShMem   1 Linda.
 Calling FoFCou, ICntrl=  3107 FMM=F I1Cent=   0 AccDes= 0.00D+00.
 CoulSu:  requested number of processors reduced to:  15 ShMem   1 Linda.
 FoFDir/FoFCou used for L=0 through L=2.
 End of G2Drv Frequency-dependent properties file   721 does not exist.
 End of G2Drv Frequency-dependent properties file   722 does not exist.
          IDoAtm=111111111111
          Differentiating once with respect to electric field.
                with respect to dipole field.
          Differentiating once with respect to nuclear coordinates.
 PrRfSu:  requested number of processors reduced to:  15 ShMem   1 Linda.
 CalDSu:  requested number of processors reduced to:  19 ShMem   1 Linda.
          There are    39 degrees of freedom in the 1st order CPHF.  IDoFFX=5.
     36 vectors produced by pass  0 Test12= 6.25D-15 2.56D-09 XBig12= 1.28D+02 5.80D+00.
 AX will form    36 AO Fock derivatives at one time.
 PrRfSu:  requested number of processors reduced to:  15 ShMem   1 Linda.
 CalDSu:  requested number of processors reduced to:  20 ShMem   1 Linda.
     36 vectors produced by pass  1 Test12= 6.25D-15 2.56D-09 XBig12= 3.14D+01 1.43D+00.
 PrRfSu:  requested number of processors reduced to:  15 ShMem   1 Linda.
 CalDSu:  requested number of processors reduced to:  20 ShMem   1 Linda.
     36 vectors produced by pass  2 Test12= 6.25D-15 2.56D-09 XBig12= 1.35D-01 9.37D-02.
 PrRfSu:  requested number of processors reduced to:  15 ShMem   1 Linda.
 CalDSu:  requested number of processors reduced to:  20 ShMem   1 Linda.
     36 vectors produced by pass  3 Test12= 6.25D-15 2.56D-09 XBig12= 7.88D-04 5.45D-03.
 PrRfSu:  requested number of processors reduced to:  15 ShMem   1 Linda.
 CalDSu:  requested number of processors reduced to:  20 ShMem   1 Linda.
     36 vectors produced by pass  4 Test12= 6.25D-15 2.56D-09 XBig12= 1.79D-06 2.13D-04.
 PrRfSu:  requested number of processors reduced to:  15 ShMem   1 Linda.
 CalDSu:  requested number of processors reduced to:  20 ShMem   1 Linda.
     31 vectors produced by pass  5 Test12= 6.25D-15 2.56D-09 XBig12= 1.89D-09 8.18D-06.
 PrRfSu:  requested number of processors reduced to:  16 ShMem   1 Linda.
 CalDSu:  requested number of processors reduced to:  21 ShMem   1 Linda.
      9 vectors produced by pass  6 Test12= 6.25D-15 2.56D-09 XBig12= 2.12D-12 2.19D-07.
 PrRfSu:  requested number of processors reduced to:  18 ShMem   1 Linda.
      6 vectors produced by pass  7 Test12= 6.25D-15 2.56D-09 XBig12= 2.24D-14 2.73D-08.
      1 vectors produced by pass  8 Test12= 6.25D-15 2.56D-09 XBig12= 2.54D-16 3.59D-09.
 Inverted reduced A of dimension   227 with in-core refinement.
 Isotropic polarizability for W=    0.000000       72.58 Bohr**3.
 End of Minotr Frequency-dependent properties file   721 does not exist.
 End of Minotr Frequency-dependent properties file   722 does not exist.

 **********************************************************************

            Population analysis using the SCF density.

 **********************************************************************

 Alpha  occ. eigenvalues --  -18.95802 -18.85179 -10.07636 -10.06770 -10.04274
 Alpha  occ. eigenvalues --   -0.80588  -0.65939  -0.61359  -0.51268  -0.42587
 Alpha  occ. eigenvalues --   -0.33043  -0.29310  -0.28066  -0.24926  -0.21819
 Alpha  occ. eigenvalues --   -0.19747  -0.15263  -0.10068  -0.07967  -0.01205
 Alpha  occ. eigenvalues --   -0.00347
 Alpha virt. eigenvalues --    0.10248   0.12095   0.13295   0.13563   0.14488
 Alpha virt. eigenvalues --    0.15628   0.16105   0.18377   0.19279   0.20415
 Alpha virt. eigenvalues --    0.22953   0.23944   0.24398   0.25451   0.27124
 Alpha virt. eigenvalues --    0.27379   0.28245   0.29081   0.30082   0.30875
 Alpha virt. eigenvalues --    0.33302   0.35208   0.36245   0.38328   0.38914
 Alpha virt. eigenvalues --    0.40081   0.41638   0.42464   0.44190   0.45613
 Alpha virt. eigenvalues --    0.46142   0.47468   0.48541   0.51764   0.54192
 Alpha virt. eigenvalues --    0.55083   0.56291   0.57097   0.77113   0.80480
 Alpha virt. eigenvalues --    0.86092   0.87033   0.90484   0.93500   0.94556
 Alpha virt. eigenvalues --    0.96932   1.01648   1.09441   1.11558   1.13843
 Alpha virt. eigenvalues --    1.21017   1.24303   1.25084   1.26524   1.28732
 Alpha virt. eigenvalues --    1.33824   1.37821   1.42243   1.43911   1.45438
 Alpha virt. eigenvalues --    1.49610   1.53562   1.56397   1.58669   1.62405
 Alpha virt. eigenvalues --    1.67711   1.75557   1.79398   1.86774   1.89473
 Alpha virt. eigenvalues --    1.94122   1.97396   2.00532   2.06139   2.07503
 Alpha virt. eigenvalues --    2.11536   2.14696   2.16565   2.17020   2.18721
 Alpha virt. eigenvalues --    2.23453   2.25316   2.30857   2.33654   2.36379
 Alpha virt. eigenvalues --    2.46011   2.50159   2.51721   2.57799   2.63968
 Alpha virt. eigenvalues --    2.70506   2.71881   2.75775   2.81212   2.88790
 Alpha virt. eigenvalues --    2.91151   2.92497   2.93829   2.99774   3.04143
 Alpha virt. eigenvalues --    3.05702   3.08063   3.10416   3.18320   3.45394
 Alpha virt. eigenvalues --    3.51193   3.63261   3.63923   3.68141   3.72586
 Alpha virt. eigenvalues --    3.74576   4.37961   4.45122   4.51974   4.68812
 Alpha virt. eigenvalues --    4.77397
          Condensed to atoms (all electrons):
              1          2          3          4          5          6
     1  C    8.891798  -0.351904  -1.279249  -0.723684   0.140926  -0.701267
     2  O   -0.351904   9.006220  -0.153845   0.025821   0.113797   0.264748
     3  C   -1.279249  -0.153845   7.845641  -1.086484   0.003364   0.068945
     4  C   -0.723684   0.025821  -1.086484   7.025290  -0.035837   0.150066
     5  H    0.140926   0.113797   0.003364  -0.035837   0.640552  -0.090720
     6  H   -0.701267   0.264748   0.068945   0.150066  -0.090720   1.140196
     7  H    0.087933   0.041383   0.051322   0.208478  -0.000378  -0.062740
     8  H    0.097848  -0.017048   0.376154  -0.168418   0.002476  -0.002633
     9  H   -0.020061  -0.011221  -0.035677   0.436564   0.002320  -0.028189
    10  H    0.003352  -0.006213   0.019748   0.367773   0.001435  -0.009942
    11  H   -0.095917   0.036175   0.164525   0.285858  -0.000087  -0.048718
    12  O   -0.280496   0.046274   0.118766   0.151392  -0.010237   0.101823
              7          8          9         10         11         12
     1  C    0.087933   0.097848  -0.020061   0.003352  -0.095917  -0.280496
     2  O    0.041383  -0.017048  -0.011221  -0.006213   0.036175   0.046274
     3  C    0.051322   0.376154  -0.035677   0.019748   0.164525   0.118766
     4  C    0.208478  -0.168418   0.436564   0.367773   0.285858   0.151392
     5  H   -0.000378   0.002476   0.002320   0.001435  -0.000087  -0.010237
     6  H   -0.062740  -0.002633  -0.028189  -0.009942  -0.048718   0.101823
     7  H    0.794512  -0.164937   0.004469   0.000128  -0.009065  -0.046494
     8  H   -0.164937   0.890122   0.012976   0.000207  -0.000195  -0.090084
     9  H    0.004469   0.012976   0.571157  -0.023304  -0.041304  -0.014352
    10  H    0.000128   0.000207  -0.023304   0.540567  -0.025611  -0.023367
    11  H   -0.009065  -0.000195  -0.041304  -0.025611   0.580094   0.013712
    12  O   -0.046494  -0.090084  -0.014352  -0.023367   0.013712   8.591705
 Mulliken atomic charges:
              1
     1  C    0.230722
     2  O   -0.994185
     3  C   -0.093208
     4  C   -0.636817
     5  H    0.232389
     6  H    0.218432
     7  H    0.095390
     8  H    0.063533
     9  H    0.146624
    10  H    0.155227
    11  H    0.140533
    12  O   -0.558640
 Sum of Mulliken atomic charges =  -1.00000
 Mulliken charges with hydrogens summed into heavy atoms:
              1
     1  C    0.449155
     2  O   -0.761796
     3  C    0.065716
     4  C   -0.194434
    12  O   -0.558640
 Sum of Mulliken charges with hydrogens summed into heavy atoms =  -1.00000
 APT atomic charges:
              1
     1  C    0.640908
     2  O   -1.001805
     3  C    0.445799
     4  C    0.056648
     5  H    0.032769
     6  H    0.073436
     7  H   -0.055390
     8  H   -0.113640
     9  H   -0.045819
    10  H   -0.036511
    11  H    0.008961
    12  O   -1.005356
 Sum of APT charges=  -1.00000
 APT Atomic charges with hydrogens summed into heavy atoms:
              1
     1  C    0.714344
     2  O   -0.969037
     3  C    0.276770
     4  C   -0.016720
     5  H    0.000000
     6  H    0.000000
     7  H    0.000000
     8  H    0.000000
     9  H    0.000000
    10  H    0.000000
    11  H    0.000000
    12  O   -1.005356
 Sum of APT charges=  -1.00000
 Electronic spatial extent (au):  <R**2>=            578.4570
 Charge=             -1.0000 electrons
 Dipole moment (field-independent basis, Debye):
    X=             -1.8436    Y=             -1.5182    Z=             -4.7144  Tot=              5.2848
 Quadrupole moment (field-independent basis, Debye-Ang):
   XX=            -36.2382   YY=            -38.5350   ZZ=            -62.4673
   XY=             -2.8620   XZ=              1.1417   YZ=              8.4337
 Traceless Quadrupole moment (field-independent basis, Debye-Ang):
   XX=              9.5086   YY=              7.2118   ZZ=            -16.7205
   XY=             -2.8620   XZ=              1.1417   YZ=              8.4337
 Octapole moment (field-independent basis, Debye-Ang**2):
  XXX=            -14.6795  YYY=             -6.2075  ZZZ=            -49.2497  XYY=             -8.1833
  XXY=             -1.2876  XXZ=             -3.5269  XZZ=            -13.8705  YZZ=              5.1530
  YYZ=              3.3000  XYZ=              2.6200
 Hexadecapole moment (field-independent basis, Debye-Ang**3):
 XXXX=           -237.7901 YYYY=           -138.5443 ZZZZ=           -607.3398 XXXY=            -35.2946
 XXXZ=             20.2941 YYYX=            -39.6989 YYYZ=             14.6051 ZZZX=             12.8117
 ZZZY=             53.9197 XXYY=            -64.5261 XXZZ=           -128.0249 YYZZ=           -103.0933
 XXYZ=              3.7553 YYXZ=              9.2863 ZZXY=            -22.0731
 N-N= 1.718404911767D+02 E-N=-9.811826733910D+02  KE= 2.665944511021D+02
  Exact polarizability:  68.311   6.588  57.840  -5.782  -3.713  91.585
 Approx polarizability:  83.674   8.689  81.460 -12.060 -15.573 122.123
 PrsmSu:  requested number of processors reduced to:  10 ShMem   1 Linda.
 PrsmSu:  requested number of processors reduced to:  11 ShMem   1 Linda.
 Calling FoFJK, ICntrl=    100127 FMM=F ISym2X=0 I1Cent= 0 IOpClX= 0 NMat=1 NMatS=1 NMatT=0.
 CoulSu:  requested number of processors reduced to:  11 ShMem   1 Linda.
 -------------------------------------------------------------------
 Center     Atomic                   Forces (Hartrees/Bohr)
 Number     Number              X              Y              Z
 -------------------------------------------------------------------
      1        6          -0.008268942    0.038815969   -0.034546889
      2        8           0.004039122   -0.015691272    0.009320836
      3        6          -0.011745823    0.017177984   -0.004696842
      4        6           0.015099619    0.000168838    0.011704039
      5        1          -0.004211930    0.007276646    0.005687303
      6        1           0.001292247   -0.001312600    0.003240811
      7        1           0.011697516    0.005652561    0.012827155
      8        1           0.005649752   -0.018236339   -0.012529298
      9        1           0.005252062   -0.012769491   -0.013158602
     10        1          -0.009339692    0.012447500   -0.007998843
     11        1          -0.007862728   -0.008585891    0.015006453
     12        8          -0.001601203   -0.024943906    0.014143877
 -------------------------------------------------------------------
 Cartesian Forces:  Max     0.038815969 RMS     0.013708551

 GradGradGradGradGradGradGradGradGradGradGradGradGradGradGradGradGradGrad
 Berny optimization.
 Internal  Forces:  Max     0.025364148 RMS     0.008588801
 Search for a saddle point.
 Step number   1 out of a maximum of   62
 All quantities printed in internal units (Hartrees-Bohrs-Radians)
 Swaping is turned off.
 Second derivative matrix not updated -- analytic derivatives used.
 ITU=  0
     Eigenvalues ---   -0.03927  -0.00456   0.00087   0.00105   0.00642
     Eigenvalues ---    0.01218   0.01569   0.02231   0.04066   0.04383
     Eigenvalues ---    0.04676   0.08348   0.09779   0.10270   0.12014
     Eigenvalues ---    0.12746   0.13839   0.14806   0.16397   0.16931
     Eigenvalues ---    0.28271   0.31839   0.37497   0.37706   0.38440
     Eigenvalues ---    0.38852   0.39167   0.39589   0.40310   0.54587
 Eigenvectors required to have negative eigenvalues:
                          R1        A7        A10       D9        D4
   1                   -0.46979  -0.34743   0.32050   0.27038  -0.26414
                          A6        D5        R6        D11       D20
   1                   -0.25343  -0.19049   0.18906   0.17521  -0.17434
 RFO step:  Lambda0=3.367525400D-03 Lambda=-2.54540779D-02.
 Linear search not attempted -- option 19 set.
 Maximum step size (   0.300) exceeded in Quadratic search.
    -- Step size scaled by   0.528
 Iteration  1 RMS(Cart)=  0.09155401 RMS(Int)=  0.01739891
 Iteration  2 RMS(Cart)=  0.01467448 RMS(Int)=  0.00244810
 Iteration  3 RMS(Cart)=  0.00050438 RMS(Int)=  0.00237409
 Iteration  4 RMS(Cart)=  0.00000104 RMS(Int)=  0.00237409
 Iteration  5 RMS(Cart)=  0.00000000 RMS(Int)=  0.00237409
 Variable       Old X    -DE/DX   Delta X   Delta X   Delta X     New X
                                 (Linear)    (Quad)   (Total)
    R1        4.52209   0.00845   0.00000  -0.00139  -0.00467   4.51742
    R2        2.75186  -0.00012   0.00000   0.00057   0.00057   2.75244
    R3        2.82876  -0.00060   0.00000  -0.00597  -0.00597   2.82279
    R4        2.02201   0.00305   0.00000  -0.00294  -0.00160   2.02040
    R5        1.81414   0.01011   0.00000   0.00890   0.00890   1.82304
    R6        3.52058   0.00748   0.00000   0.15732   0.16061   3.68119
    R7        2.02201   0.01816   0.00000   0.02552   0.02552   2.04753
    R8        2.02201   0.02274   0.00000   0.02915   0.02915   2.05116
    R9        2.70231  -0.02536   0.00000  -0.03840  -0.03840   2.66391
   R10        2.02201   0.01898   0.00000   0.02332   0.02332   2.04533
   R11        2.02201   0.01736   0.00000   0.02234   0.02234   2.04435
   R12        2.02201   0.01881   0.00000   0.02241   0.02241   2.04442
    A1        1.95969   0.00221   0.00000   0.08339   0.07804   2.03773
    A2        2.01121  -0.00663   0.00000  -0.18117  -0.17996   1.83125
    A3        2.14181   0.00089   0.00000   0.01953   0.01704   2.15885
    A4        2.03529   0.00023   0.00000   0.01711   0.01505   2.05035
    A5        2.06608   0.00071   0.00000  -0.01720  -0.01502   2.05106
    A6        2.18829  -0.00023   0.00000  -0.06699  -0.07024   2.11805
    A7        1.74606   0.00006   0.00000  -0.08488  -0.08164   1.66442
    A8        2.03533  -0.00250   0.00000   0.00480   0.00474   2.04007
    A9        2.02432   0.00216   0.00000   0.00539   0.00534   2.02966
   A10        1.41486  -0.02295   0.00000  -0.05914  -0.05934   1.35552
   A11        1.93202   0.00284   0.00000  -0.00035  -0.00044   1.93158
   A12        2.00616   0.01173   0.00000   0.03871   0.03844   2.04460
   A13        2.00413   0.00389   0.00000   0.00073   0.00052   2.00465
   A14        1.94411   0.00254   0.00000   0.00596   0.00596   1.95007
   A15        1.93411  -0.00253   0.00000  -0.00085  -0.00088   1.93323
   A16        1.91270  -0.00364   0.00000  -0.02467  -0.02470   1.88800
   A17        1.89913   0.00019   0.00000   0.00029   0.00028   1.89941
   A18        1.90041   0.00074   0.00000   0.00799   0.00800   1.90840
   A19        1.87166   0.00277   0.00000   0.01184   0.01178   1.88344
    D1        1.95428   0.00293   0.00000  -0.19568  -0.19515   1.75913
    D2       -1.76297  -0.00193   0.00000  -0.30272  -0.29997  -2.06294
    D3       -0.34745  -0.00580   0.00000  -0.14520  -0.14748  -0.49493
    D4        1.97660  -0.00164   0.00000  -0.13413  -0.13653   1.84007
    D5       -2.32839  -0.00785   0.00000  -0.16049  -0.16286  -2.49124
    D6       -2.86380   0.00227   0.00000   0.04454   0.04660  -2.81721
    D7       -0.53976   0.00643   0.00000   0.05561   0.05755  -0.48221
    D8        1.43844   0.00022   0.00000   0.02925   0.03122   1.46966
    D9        0.58317  -0.00466   0.00000  -0.02464  -0.02422   0.55895
   D10        2.90721  -0.00050   0.00000  -0.01358  -0.01326   2.89395
   D11       -1.39777  -0.00671   0.00000  -0.03993  -0.03959  -1.43736
   D12       -2.19979   0.00093   0.00000   0.04187   0.03683  -2.16296
   D13        1.96644   0.00068   0.00000   0.03802   0.03299   1.99942
   D14       -0.09571   0.00107   0.00000   0.03932   0.03425  -0.06146
   D15        0.29991  -0.00442   0.00000  -0.06525  -0.06256   0.23735
   D16       -1.81705  -0.00466   0.00000  -0.06910  -0.06640  -1.88345
   D17        2.40398  -0.00428   0.00000  -0.06781  -0.06514   2.33885
   D18        3.13102   0.00255   0.00000   0.01090   0.01326  -3.13890
   D19        1.01406   0.00230   0.00000   0.00705   0.00942   1.02349
   D20       -1.04809   0.00269   0.00000   0.00834   0.01069  -1.03740
   D21       -0.04180  -0.00187   0.00000   0.07123   0.07843   0.03663
         Item               Value     Threshold  Converged?
 Maximum Force            0.025364     0.000450     NO 
 RMS     Force            0.008589     0.000300     NO 
 Maximum Displacement     0.346445     0.001800     NO 
 RMS     Displacement     0.092620     0.001200     NO 
 Predicted change in Energy=-1.104639D-02
 GradGradGradGradGradGradGradGradGradGradGradGradGradGradGradGradGradGrad

                          Input orientation:                          
 ---------------------------------------------------------------------
 Center     Atomic      Atomic             Coordinates (Angstroms)
 Number     Number       Type             X           Y           Z
 ---------------------------------------------------------------------
      1          6           0        0.029273    0.068033   -0.032679
      2          8           0       -0.183331   -0.129883    2.340125
      3          6           0        1.379406    0.015679   -0.576622
      4          6           0       -1.118563   -0.710064   -0.587966
      5          1           0       -0.320812    0.644946    2.898162
      6          1           0       -0.194114    0.852812    0.658193
      7          1           0        2.180534    0.359680    0.066679
      8          1           0        1.659904   -0.904595   -1.079179
      9          1           0       -0.786958   -1.479864   -1.272735
     10          1           0       -1.810114   -0.057768   -1.104304
     11          1           0       -1.646600   -1.168165    0.237710
     12          8           0        0.759463    0.976115   -1.401507
 ---------------------------------------------------------------------
                    Distance matrix (angstroms):
                    1          2          3          4          5
     1  C    0.000000
     2  O    2.390518   0.000000
     3  C    1.456527   3.312212   0.000000
     4  C    1.493756   3.128096   2.601285   0.000000
     5  H    3.007527   0.964710   3.919291   3.824336   0.000000
     6  H    1.069151   1.948000   2.168300   2.202294   2.253158
     7  H    2.173213   3.316035   1.083504   3.529442   3.788853
     8  H    2.167977   3.960977   1.085425   2.828253   4.705694
     9  H    2.144751   3.903790   2.722931   1.082341   4.704093
    10  H    2.132498   3.809950   3.233709   1.081821   4.327997
    11  H    2.099964   2.763935   3.349826   1.081860   3.481822
    12  O    1.797632   4.013964   1.409682   2.651798   4.445652
                    6          7          8          9         10
     6  H    0.000000
     7  H    2.496402   0.000000
     8  H    3.089389   1.783939   0.000000
     9  H    3.085664   3.739514   2.521018   0.000000
    10  H    2.558712   4.179801   3.571942   1.759992   0.000000
    11  H    2.524058   4.124381   3.568843   1.765669   1.749491
    12  O    2.273077   2.134246   2.109920   2.905139   2.785672
                   11         12
    11  H    0.000000
    12  O    3.615814   0.000000
 Symmetry turned off by external request.
 Stoichiometry    C3H7O2(1-)
 Framework group  C1[X(C3H7O2)]
 Deg. of freedom    30
 Full point group                 C1      NOp   1
 Rotational constants (GHZ):      6.7062532      3.0301500      2.3774388
 Standard basis: 6-31++G(d,p) (6D, 7F)
 The following finite field(s) will be applied:
 An electric field of              0.0000  0.0000 -0.0010
 Integral buffers will be    131072 words long.
 Raffenetti 2 integral format.
 Two-electron integral symmetry is turned off.
   137 basis functions,   216 primitive gaussians,   137 cartesian basis functions
    21 alpha electrons       21 beta electrons
       nuclear repulsion energy       173.0241298697 Hartrees.
 NAtoms=   12 NActive=   12 NUniq=   12 SFac= 1.00D+00 NAtFMM=   50 NAOKFM=F Big=F
 One-electron integrals computed using PRISM.
 PrsmSu:  requested number of processors reduced to:  10 ShMem   1 Linda.
 NBasis=   137 RedAO= T  NBF=   137
 NBsUse=   137 1.00D-06 NBFU=   137
 The nuclear repulsion energy is now       173.0227506126 hartrees.
 Initial guess read from the read-write file.
 B after Tr=     0.000000    0.000000    0.000000
         Rot=    1.000000    0.000000    0.000000    0.000000 Ang=   0.00 deg.
 Harris functional with IExCor=  402 diagonalized for initial guess.
 ExpMin= 3.60D-02 ExpMax= 5.48D+03 ExpMxC= 8.25D+02 IAcc=3 IRadAn=         0 AccDes= 0.00D+00
 HarFok:  IExCor=  402 AccDes= 0.00D+00 IRadAn=         0 IDoV= 1
 ScaDFX=  1.000000  1.000000  1.000000  1.000000
 FoFCou: FMM=F IPFlag=           0 FMFlag=      100000 FMFlg1=           0
         NFxFlg=           0 DoJE=T BraDBF=F KetDBF=T FulRan=T
         Omega=  0.000000  0.000000  1.000000  0.000000  0.000000 ICntrl=     500 IOpCl=  0
         NMat0=    1 NMatS0=    1 NMatT0=    0 NMatD0=    1 NMtDS0=    0 NMtDT0=    0
         I1Cent=           4 NGrid=           0.
 Symmetry not used in FoFCou.
 Requested convergence on RMS density matrix=1.00D-08 within 128 cycles.
 Requested convergence on MAX density matrix=1.00D-06.
 Requested convergence on             energy=1.00D-06.
 No special actions if energy rises.
 SCF Done:  E(RB3LYP) =  -268.922811076     A.U. after   13 cycles
             Convg  =    0.3997D-08             -V/T =  2.0090
 Range of M.O.s used for correlation:     1   137
 NBasis=   137 NAE=    21 NBE=    21 NFC=     0 NFV=     0
 NROrb=    137 NOA=    21 NOB=    21 NVA=   116 NVB=   116

 **** Warning!!: The largest alpha MO coefficient is  0.35099059D+02

 PrsmSu:  requested number of processors reduced to:  10 ShMem   1 Linda.
 PrsmSu:  requested number of processors reduced to:  18 ShMem   1 Linda.
 Symmetrizing basis deriv contribution to polar:
 IMax=3 JMax=2 DiffMx= 0.00D+00
 G2DrvN: will do     4 centers at a time, making    4 passes doing MaxLOS=2.
 Estimated number of processors is:   15
 Calling FoFCou, ICntrl=  3107 FMM=F I1Cent=   0 AccDes= 0.00D+00.
 CoulSu:  requested number of processors reduced to:  15 ShMem   1 Linda.
 Calling FoFCou, ICntrl=  3107 FMM=F I1Cent=   0 AccDes= 0.00D+00.
 CoulSu:  requested number of processors reduced to:  15 ShMem   1 Linda.
 Calling FoFCou, ICntrl=  3107 FMM=F I1Cent=   0 AccDes= 0.00D+00.
 CoulSu:  requested number of processors reduced to:  15 ShMem   1 Linda.
 Calling FoFCou, ICntrl=  3107 FMM=F I1Cent=   0 AccDes= 0.00D+00.
 CoulSu:  requested number of processors reduced to:  15 ShMem   1 Linda.
 FoFDir/FoFCou used for L=0 through L=2.
 End of G2Drv Frequency-dependent properties file   721 does not exist.
 End of G2Drv Frequency-dependent properties file   722 does not exist.
          IDoAtm=111111111111
          Differentiating once with respect to electric field.
                with respect to dipole field.
          Differentiating once with respect to nuclear coordinates.
 PrRfSu:  requested number of processors reduced to:  15 ShMem   1 Linda.
 CalDSu:  requested number of processors reduced to:  19 ShMem   1 Linda.
          There are    39 degrees of freedom in the 1st order CPHF.  IDoFFX=5.
     36 vectors produced by pass  0 Test12= 6.25D-15 2.56D-09 XBig12= 1.10D+02 4.95D+00.
 AX will form    36 AO Fock derivatives at one time.
 PrRfSu:  requested number of processors reduced to:  15 ShMem   1 Linda.
 CalDSu:  requested number of processors reduced to:  20 ShMem   1 Linda.
     36 vectors produced by pass  1 Test12= 6.25D-15 2.56D-09 XBig12= 2.59D+01 1.51D+00.
 PrRfSu:  requested number of processors reduced to:  15 ShMem   1 Linda.
 CalDSu:  requested number of processors reduced to:  20 ShMem   1 Linda.
     36 vectors produced by pass  2 Test12= 6.25D-15 2.56D-09 XBig12= 1.29D-01 8.38D-02.
 PrRfSu:  requested number of processors reduced to:  15 ShMem   1 Linda.
 CalDSu:  requested number of processors reduced to:  20 ShMem   1 Linda.
     36 vectors produced by pass  3 Test12= 6.25D-15 2.56D-09 XBig12= 6.59D-04 4.56D-03.
 PrRfSu:  requested number of processors reduced to:  15 ShMem   1 Linda.
 CalDSu:  requested number of processors reduced to:  20 ShMem   1 Linda.
     36 vectors produced by pass  4 Test12= 6.25D-15 2.56D-09 XBig12= 1.59D-06 2.07D-04.
 PrRfSu:  requested number of processors reduced to:  15 ShMem   1 Linda.
 CalDSu:  requested number of processors reduced to:  20 ShMem   1 Linda.
     31 vectors produced by pass  5 Test12= 6.25D-15 2.56D-09 XBig12= 1.75D-09 6.43D-06.
 PrRfSu:  requested number of processors reduced to:  16 ShMem   1 Linda.
 CalDSu:  requested number of processors reduced to:  21 ShMem   1 Linda.
     10 vectors produced by pass  6 Test12= 6.25D-15 2.56D-09 XBig12= 1.66D-12 1.83D-07.
 PrRfSu:  requested number of processors reduced to:  18 ShMem   1 Linda.
      7 vectors produced by pass  7 Test12= 6.25D-15 2.56D-09 XBig12= 3.88D-14 3.87D-08.
 PrRfSu:  requested number of processors reduced to:  18 ShMem   1 Linda.
      1 vectors produced by pass  8 Test12= 6.25D-15 2.56D-09 XBig12= 1.42D-16 3.35D-09.
 Inverted reduced A of dimension   229 with in-core refinement.
 Isotropic polarizability for W=    0.000000       71.36 Bohr**3.
 End of Minotr Frequency-dependent properties file   721 does not exist.
 End of Minotr Frequency-dependent properties file   722 does not exist.
 PrsmSu:  requested number of processors reduced to:  10 ShMem   1 Linda.
 PrsmSu:  requested number of processors reduced to:  11 ShMem   1 Linda.
 Calling FoFJK, ICntrl=    100127 FMM=F ISym2X=0 I1Cent= 0 IOpClX= 0 NMat=1 NMatS=1 NMatT=0.
 CoulSu:  requested number of processors reduced to:  11 ShMem   1 Linda.
 -------------------------------------------------------------------
 Center     Atomic                   Forces (Hartrees/Bohr)
 Number     Number              X              Y              Z
 -------------------------------------------------------------------
      1        6          -0.004914411    0.033377465   -0.027805220
      2        8          -0.002000034   -0.013574591    0.008405091
      3        6          -0.005056856    0.001884505    0.001391735
      4        6           0.008060971   -0.003175515    0.008340891
      5        1           0.000151744    0.004331179    0.002733999
      6        1           0.001631656   -0.000610646    0.002254237
      7        1           0.006283138    0.004825656    0.005586682
      8        1           0.003301857   -0.009952103   -0.005691404
      9        1           0.002528478   -0.006700527   -0.007022378
     10        1          -0.005180978    0.006313942   -0.004232747
     11        1          -0.003155131   -0.004183453    0.008477061
     12        8          -0.001650434   -0.012535912    0.006562052
 -------------------------------------------------------------------
 Cartesian Forces:  Max     0.033377465 RMS     0.009285761

 GradGradGradGradGradGradGradGradGradGradGradGradGradGradGradGradGradGrad
 Berny optimization.
 Internal  Forces:  Max     0.013239389 RMS     0.004925556
 Search for a saddle point.
 Step number   2 out of a maximum of   62
 All quantities printed in internal units (Hartrees-Bohrs-Radians)
 Swaping is turned off.
 Second derivative matrix not updated -- analytic derivatives used.
 ITU=  0  0
     Eigenvalues ---   -0.03241  -0.00378   0.00118   0.00213   0.00654
     Eigenvalues ---    0.01419   0.01748   0.02068   0.04069   0.04395
     Eigenvalues ---    0.04746   0.08597   0.09747   0.10217   0.12199
     Eigenvalues ---    0.12897   0.13900   0.14898   0.16729   0.19421
     Eigenvalues ---    0.31178   0.32339   0.34548   0.35934   0.36312
     Eigenvalues ---    0.37091   0.37285   0.38534   0.41804   0.52791
 Eigenvectors required to have negative eigenvalues:
                          R1        A7        A10       D9        D4
   1                   -0.51737  -0.31932   0.28841   0.27643  -0.25100
                          A6        D20       D19       D18       D11
   1                   -0.23280  -0.19670  -0.19205  -0.18672   0.18558
 RFO step:  Lambda0=1.716362502D-03 Lambda=-1.72394439D-02.
 Linear search not attempted -- option 19 set.
 Maximum step size (   0.300) exceeded in Quadratic search.
    -- Step size scaled by   0.605
 Iteration  1 RMS(Cart)=  0.09970673 RMS(Int)=  0.02630047
 Iteration  2 RMS(Cart)=  0.02290461 RMS(Int)=  0.00323446
 Iteration  3 RMS(Cart)=  0.00127555 RMS(Int)=  0.00288398
 Iteration  4 RMS(Cart)=  0.00000455 RMS(Int)=  0.00288398
 Iteration  5 RMS(Cart)=  0.00000001 RMS(Int)=  0.00288398
 Variable       Old X    -DE/DX   Delta X   Delta X   Delta X     New X
                                 (Linear)    (Quad)   (Total)
    R1        4.51742   0.00589   0.00000  -0.01750  -0.02039   4.49704
    R2        2.75244   0.00018   0.00000  -0.00397  -0.00397   2.74847
    R3        2.82279   0.00011   0.00000  -0.00345  -0.00345   2.81934
    R4        2.02040   0.00199   0.00000   0.00095   0.00291   2.02331
    R5        1.82304   0.00507   0.00000   0.00470   0.00470   1.82774
    R6        3.68119   0.00700   0.00000   0.19304   0.19536   3.87655
    R7        2.04753   0.00955   0.00000   0.01643   0.01643   2.06395
    R8        2.05116   0.01188   0.00000   0.01745   0.01745   2.06861
    R9        2.66391  -0.01171   0.00000  -0.00888  -0.00888   2.65503
   R10        2.04533   0.00993   0.00000   0.01493   0.01493   2.06026
   R11        2.04435   0.00911   0.00000   0.01512   0.01512   2.05946
   R12        2.04442   0.00983   0.00000   0.01465   0.01465   2.05907
    A1        2.03773   0.00115   0.00000   0.05700   0.04935   2.08708
    A2        1.83125  -0.00570   0.00000  -0.18975  -0.18964   1.64160
    A3        2.15885   0.00056   0.00000   0.01462   0.01150   2.17035
    A4        2.05035   0.00027   0.00000   0.01585   0.01371   2.06406
    A5        2.05106   0.00039   0.00000  -0.01129  -0.01010   2.04096
    A6        2.11805  -0.00023   0.00000  -0.03755  -0.04652   2.07153
    A7        1.66442  -0.00021   0.00000  -0.04242  -0.03339   1.63103
    A8        2.04007  -0.00089   0.00000   0.01156   0.01140   2.05147
    A9        2.02966   0.00150   0.00000   0.00923   0.00907   2.03873
   A10        1.35552  -0.01324   0.00000  -0.05275  -0.05275   1.30277
   A11        1.93158   0.00136   0.00000   0.00152   0.00131   1.93288
   A12        2.04460   0.00611   0.00000   0.01808   0.01806   2.06266
   A13        2.00465   0.00198   0.00000   0.00084   0.00086   2.00551
   A14        1.95007   0.00134   0.00000   0.00157   0.00155   1.95162
   A15        1.93323  -0.00136   0.00000   0.00048   0.00046   1.93369
   A16        1.88800  -0.00234   0.00000  -0.02714  -0.02718   1.86083
   A17        1.89941   0.00007   0.00000  -0.00020  -0.00020   1.89921
   A18        1.90840   0.00063   0.00000   0.01284   0.01280   1.92120
   A19        1.88344   0.00170   0.00000   0.01308   0.01304   1.89648
    D1        1.75913   0.00138   0.00000  -0.24465  -0.24521   1.51391
    D2       -2.06294  -0.00301   0.00000  -0.37712  -0.37304  -2.43598
    D3       -0.49493  -0.00575   0.00000  -0.19267  -0.19482  -0.68975
    D4        1.84007  -0.00281   0.00000  -0.16583  -0.16790   1.67217
    D5       -2.49124  -0.00655   0.00000  -0.18869  -0.19082  -2.68206
    D6       -2.81721   0.00207   0.00000   0.04703   0.04857  -2.76864
    D7       -0.48221   0.00501   0.00000   0.07388   0.07550  -0.40671
    D8        1.46966   0.00127   0.00000   0.05102   0.05258   1.52224
    D9        0.55895  -0.00409   0.00000  -0.04805  -0.04754   0.51142
   D10        2.89395  -0.00116   0.00000  -0.02120  -0.02061   2.87334
   D11       -1.43736  -0.00490   0.00000  -0.04406  -0.04353  -1.48089
   D12       -2.16296   0.00078   0.00000   0.04808   0.04309  -2.11987
   D13        1.99942   0.00071   0.00000   0.04692   0.04196   2.04138
   D14       -0.06146   0.00085   0.00000   0.04718   0.04220  -0.01926
   D15        0.23735  -0.00399   0.00000  -0.08436  -0.08157   0.15578
   D16       -1.88345  -0.00406   0.00000  -0.08552  -0.08271  -1.96616
   D17        2.33885  -0.00392   0.00000  -0.08526  -0.08246   2.25639
   D18       -3.13890   0.00216   0.00000   0.01413   0.01630  -3.12260
   D19        1.02349   0.00210   0.00000   0.01297   0.01516   1.03864
   D20       -1.03740   0.00223   0.00000   0.01324   0.01541  -1.02199
   D21        0.03663  -0.00063   0.00000   0.11611   0.12141   0.15804
         Item               Value     Threshold  Converged?
 Maximum Force            0.013239     0.000450     NO 
 RMS     Force            0.004926     0.000300     NO 
 Maximum Displacement     0.378157     0.001800     NO 
 RMS     Displacement     0.107086     0.001200     NO 
 Predicted change in Energy=-9.439948D-03
 GradGradGradGradGradGradGradGradGradGradGradGradGradGradGradGradGradGrad

                          Input orientation:                          
 ---------------------------------------------------------------------
 Center     Atomic      Atomic             Coordinates (Angstroms)
 Number     Number       Type             X           Y           Z
 ---------------------------------------------------------------------
      1          6           0        0.044731    0.149323   -0.073862
      2          8           0       -0.383443   -0.239199    2.234563
      3          6           0        1.401877    0.028333   -0.582659
      4          6           0       -1.104763   -0.682020   -0.535804
      5          1           0       -0.285924    0.496262    2.855094
      6          1           0       -0.179019    0.963060    0.585033
      7          1           0        2.211892    0.407613    0.044171
      8          1           0        1.676658   -0.930807   -1.033024
      9          1           0       -0.781232   -1.495594   -1.185460
     10          1           0       -1.832374   -0.072602   -1.071435
     11          1           0       -1.578279   -1.083961    0.359452
     12          8           0        0.757964    0.926520   -1.450192
 ---------------------------------------------------------------------
                    Distance matrix (angstroms):
                    1          2          3          4          5
     1  C    0.000000
     2  O    2.379728   0.000000
     3  C    1.454427   3.345994   0.000000
     4  C    1.491931   2.896779   2.605771   0.000000
     5  H    2.967909   0.967198   3.858209   3.681989   0.000000
     6  H    1.070689   2.051381   2.176339   2.195352   2.320023
     7  H    2.185688   3.457159   1.092196   3.538908   3.761414
     8  H    2.179417   3.924214   1.094661   2.836446   4.583199
     9  H    2.150260   3.665150   2.729778   1.090242   4.531987
    10  H    2.137270   3.613417   3.272532   1.089820   4.258256
    11  H    2.083965   2.378507   3.317544   1.089613   3.224208
    12  O    1.734077   4.029781   1.404983   2.625502   4.450878
                    6          7          8          9         10
     6  H    0.000000
     7  H    2.513465   0.000000
     8  H    3.106184   1.799498   0.000000
     9  H    3.089060   3.754062   2.526548   0.000000
    10  H    2.559310   4.222708   3.612658   1.772797   0.000000
    11  H    2.489801   4.085289   3.543594   1.786471   1.770550
    12  O    2.240851   2.148555   2.113691   2.881986   2.802062
                   11         12
    11  H    0.000000
    12  O    3.574196   0.000000
 Symmetry turned off by external request.
 Stoichiometry    C3H7O2(1-)
 Framework group  C1[X(C3H7O2)]
 Deg. of freedom    30
 Full point group                 C1      NOp   1
 Rotational constants (GHZ):      7.3661189      3.0093574      2.4250644
 Standard basis: 6-31++G(d,p) (6D, 7F)
 The following finite field(s) will be applied:
 An electric field of              0.0000  0.0000 -0.0010
 Integral buffers will be    131072 words long.
 Raffenetti 2 integral format.
 Two-electron integral symmetry is turned off.
   137 basis functions,   216 primitive gaussians,   137 cartesian basis functions
    21 alpha electrons       21 beta electrons
       nuclear repulsion energy       174.4699133838 Hartrees.
 NAtoms=   12 NActive=   12 NUniq=   12 SFac= 1.00D+00 NAtFMM=   50 NAOKFM=F Big=F
 One-electron integrals computed using PRISM.
 PrsmSu:  requested number of processors reduced to:  10 ShMem   1 Linda.
 NBasis=   137 RedAO= T  NBF=   137
 NBsUse=   137 1.00D-06 NBFU=   137
 The nuclear repulsion energy is now       174.4705278284 hartrees.
 Initial guess read from the read-write file.
 B after Tr=     0.000000    0.000000    0.000000
         Rot=    1.000000    0.000000    0.000000    0.000000 Ang=   0.00 deg.
 Harris functional with IExCor=  402 diagonalized for initial guess.
 ExpMin= 3.60D-02 ExpMax= 5.48D+03 ExpMxC= 8.25D+02 IAcc=3 IRadAn=         0 AccDes= 0.00D+00
 HarFok:  IExCor=  402 AccDes= 0.00D+00 IRadAn=         0 IDoV= 1
 ScaDFX=  1.000000  1.000000  1.000000  1.000000
 FoFCou: FMM=F IPFlag=           0 FMFlag=      100000 FMFlg1=           0
         NFxFlg=           0 DoJE=T BraDBF=F KetDBF=T FulRan=T
         Omega=  0.000000  0.000000  1.000000  0.000000  0.000000 ICntrl=     500 IOpCl=  0
         NMat0=    1 NMatS0=    1 NMatT0=    0 NMatD0=    1 NMtDS0=    0 NMtDT0=    0
         I1Cent=           4 NGrid=           0.
 Symmetry not used in FoFCou.
 Requested convergence on RMS density matrix=1.00D-08 within 128 cycles.
 Requested convergence on MAX density matrix=1.00D-06.
 Requested convergence on             energy=1.00D-06.
 No special actions if energy rises.
 SCF Done:  E(RB3LYP) =  -268.931858548     A.U. after   13 cycles
             Convg  =    0.4131D-08             -V/T =  2.0091
 Range of M.O.s used for correlation:     1   137
 NBasis=   137 NAE=    21 NBE=    21 NFC=     0 NFV=     0
 NROrb=    137 NOA=    21 NOB=    21 NVA=   116 NVB=   116

 **** Warning!!: The largest alpha MO coefficient is  0.34124096D+02

 PrsmSu:  requested number of processors reduced to:  10 ShMem   1 Linda.
 PrsmSu:  requested number of processors reduced to:  18 ShMem   1 Linda.
 Symmetrizing basis deriv contribution to polar:
 IMax=3 JMax=2 DiffMx= 0.00D+00
 G2DrvN: will do     4 centers at a time, making    4 passes doing MaxLOS=2.
 Estimated number of processors is:   15
 Calling FoFCou, ICntrl=  3107 FMM=F I1Cent=   0 AccDes= 0.00D+00.
 CoulSu:  requested number of processors reduced to:  15 ShMem   1 Linda.
 Calling FoFCou, ICntrl=  3107 FMM=F I1Cent=   0 AccDes= 0.00D+00.
 CoulSu:  requested number of processors reduced to:  15 ShMem   1 Linda.
 Calling FoFCou, ICntrl=  3107 FMM=F I1Cent=   0 AccDes= 0.00D+00.
 CoulSu:  requested number of processors reduced to:  15 ShMem   1 Linda.
 Calling FoFCou, ICntrl=  3107 FMM=F I1Cent=   0 AccDes= 0.00D+00.
 CoulSu:  requested number of processors reduced to:  15 ShMem   1 Linda.
 FoFDir/FoFCou used for L=0 through L=2.
 End of G2Drv Frequency-dependent properties file   721 does not exist.
 End of G2Drv Frequency-dependent properties file   722 does not exist.
          IDoAtm=111111111111
          Differentiating once with respect to electric field.
                with respect to dipole field.
          Differentiating once with respect to nuclear coordinates.
 PrRfSu:  requested number of processors reduced to:  15 ShMem   1 Linda.
 CalDSu:  requested number of processors reduced to:  19 ShMem   1 Linda.
          There are    39 degrees of freedom in the 1st order CPHF.  IDoFFX=5.
     37 vectors produced by pass  0 Test12= 6.25D-15 2.56D-09 XBig12= 9.37D+01 3.73D+00.
 AX will form    37 AO Fock derivatives at one time.
 PrRfSu:  requested number of processors reduced to:  15 ShMem   1 Linda.
 CalDSu:  requested number of processors reduced to:  20 ShMem   1 Linda.
     36 vectors produced by pass  1 Test12= 6.25D-15 2.56D-09 XBig12= 2.13D+01 1.27D+00.
 PrRfSu:  requested number of processors reduced to:  15 ShMem   1 Linda.
 CalDSu:  requested number of processors reduced to:  20 ShMem   1 Linda.
     36 vectors produced by pass  2 Test12= 6.25D-15 2.56D-09 XBig12= 1.30D-01 7.10D-02.
 PrRfSu:  requested number of processors reduced to:  15 ShMem   1 Linda.
 CalDSu:  requested number of processors reduced to:  20 ShMem   1 Linda.
     36 vectors produced by pass  3 Test12= 6.25D-15 2.56D-09 XBig12= 6.28D-04 3.97D-03.
 PrRfSu:  requested number of processors reduced to:  15 ShMem   1 Linda.
 CalDSu:  requested number of processors reduced to:  20 ShMem   1 Linda.
     36 vectors produced by pass  4 Test12= 6.25D-15 2.56D-09 XBig12= 1.63D-06 1.98D-04.
 PrRfSu:  requested number of processors reduced to:  15 ShMem   1 Linda.
 CalDSu:  requested number of processors reduced to:  20 ShMem   1 Linda.
     30 vectors produced by pass  5 Test12= 6.25D-15 2.56D-09 XBig12= 2.32D-09 5.92D-06.
 PrRfSu:  requested number of processors reduced to:  16 ShMem   1 Linda.
 CalDSu:  requested number of processors reduced to:  21 ShMem   1 Linda.
      6 vectors produced by pass  6 Test12= 6.25D-15 2.56D-09 XBig12= 2.44D-12 1.93D-07.
      5 vectors produced by pass  7 Test12= 6.25D-15 2.56D-09 XBig12= 2.78D-14 3.59D-08.
      1 vectors produced by pass  8 Test12= 6.25D-15 2.56D-09 XBig12= 1.35D-16 2.71D-09.
 Inverted reduced A of dimension   223 with in-core refinement.
 Isotropic polarizability for W=    0.000000       69.88 Bohr**3.
 End of Minotr Frequency-dependent properties file   721 does not exist.
 End of Minotr Frequency-dependent properties file   722 does not exist.
 PrsmSu:  requested number of processors reduced to:  10 ShMem   1 Linda.
 PrsmSu:  requested number of processors reduced to:  11 ShMem   1 Linda.
 Calling FoFJK, ICntrl=    100127 FMM=F ISym2X=0 I1Cent= 0 IOpClX= 0 NMat=1 NMatS=1 NMatT=0.
 CoulSu:  requested number of processors reduced to:  11 ShMem   1 Linda.
 -------------------------------------------------------------------
 Center     Atomic                   Forces (Hartrees/Bohr)
 Number     Number              X              Y              Z
 -------------------------------------------------------------------
      1        6          -0.003084741    0.025233792   -0.021352318
      2        8          -0.004313518   -0.008700549    0.006333359
      3        6          -0.000883272   -0.005263146    0.004279787
      4        6           0.003537743   -0.004380827    0.005699608
      5        1           0.002170000    0.000976722    0.001958853
      6        1           0.001846010    0.000110838    0.001517217
      7        1           0.002765637    0.004111480    0.001160965
      8        1           0.001658370   -0.004547806   -0.001660934
      9        1           0.001082082   -0.002896569   -0.003441878
     10        1          -0.002416260    0.002714003   -0.002100935
     11        1          -0.001007516   -0.001821496    0.003796579
     12        8          -0.001354536   -0.005536443    0.002809696
 -------------------------------------------------------------------
 Cartesian Forces:  Max     0.025233792 RMS     0.006483006

 GradGradGradGradGradGradGradGradGradGradGradGradGradGradGradGradGradGrad
 Berny optimization.
 Internal  Forces:  Max     0.007008890 RMS     0.002765556
 Search for a saddle point.
 Step number   3 out of a maximum of   62
 All quantities printed in internal units (Hartrees-Bohrs-Radians)
 Swaping is turned off.
 Second derivative matrix not updated -- analytic derivatives used.
 ITU=  0  0  0
     Eigenvalues ---   -0.02319  -0.00092   0.00133   0.00488   0.00769
     Eigenvalues ---    0.01508   0.01886   0.03791   0.04027   0.04473
     Eigenvalues ---    0.04863   0.09079   0.09560   0.10398   0.12359
     Eigenvalues ---    0.12897   0.13907   0.14851   0.16735   0.21918
     Eigenvalues ---    0.31518   0.32647   0.32805   0.34292   0.34779
     Eigenvalues ---    0.35579   0.36766   0.38559   0.44589   0.51857
 Eigenvectors required to have negative eigenvalues:
                          R1        D9        A7        A10       D20
   1                   -0.54187   0.28169  -0.26262   0.25723  -0.22922
                          A6        D19       D18       D4        D7
   1                   -0.21638  -0.21568  -0.21486  -0.20896  -0.19634
 RFO step:  Lambda0=1.720475120D-03 Lambda=-1.07806898D-02.
 Linear search not attempted -- option 19 set.
 Maximum step size (   0.300) exceeded in Quadratic search.
    -- Step size scaled by   0.793
 Iteration  1 RMS(Cart)=  0.11030291 RMS(Int)=  0.05332145
 Iteration  2 RMS(Cart)=  0.03903435 RMS(Int)=  0.01306554
 Iteration  3 RMS(Cart)=  0.01012719 RMS(Int)=  0.00648035
 Iteration  4 RMS(Cart)=  0.00037045 RMS(Int)=  0.00647186
 Iteration  5 RMS(Cart)=  0.00000462 RMS(Int)=  0.00647186
 Iteration  6 RMS(Cart)=  0.00000008 RMS(Int)=  0.00647186
 Variable       Old X    -DE/DX   Delta X   Delta X   Delta X     New X
                                 (Linear)    (Quad)   (Total)
    R1        4.49704   0.00452   0.00000  -0.07849  -0.08422   4.41281
    R2        2.74847   0.00055   0.00000  -0.00644  -0.00644   2.74203
    R3        2.81934   0.00130   0.00000   0.00602   0.00602   2.82536
    R4        2.02331   0.00120   0.00000   0.00383   0.01203   2.03534
    R5        1.82774   0.00227   0.00000   0.00265   0.00265   1.83039
    R6        3.87655   0.00593   0.00000   0.24606   0.24814   4.12469
    R7        2.06395   0.00419   0.00000   0.00971   0.00971   2.07366
    R8        2.06861   0.00505   0.00000   0.00944   0.00944   2.07805
    R9        2.65503  -0.00470   0.00000   0.00628   0.00628   2.66131
   R10        2.06026   0.00448   0.00000   0.00864   0.00864   2.06890
   R11        2.05946   0.00413   0.00000   0.01048   0.01048   2.06994
   R12        2.05907   0.00430   0.00000   0.00786   0.00786   2.06693
    A1        2.08708  -0.00090   0.00000  -0.07203  -0.07689   2.01019
    A2        1.64160  -0.00277   0.00000  -0.08845  -0.09544   1.54616
    A3        2.17035  -0.00046   0.00000  -0.00904  -0.01570   2.15465
    A4        2.06406   0.00034   0.00000   0.00552   0.00805   2.07211
    A5        2.04096   0.00067   0.00000   0.01065   0.01316   2.05412
    A6        2.07153   0.00021   0.00000  -0.04055  -0.06564   2.00588
    A7        1.63103   0.00052   0.00000   0.01428   0.04187   1.67290
    A8        2.05147   0.00004   0.00000   0.00788   0.00781   2.05928
    A9        2.03873   0.00084   0.00000   0.00518   0.00511   2.04384
   A10        1.30277  -0.00701   0.00000  -0.02244  -0.02241   1.28036
   A11        1.93288   0.00066   0.00000   0.00201   0.00191   1.93479
   A12        2.06266   0.00252   0.00000  -0.00299  -0.00293   2.05974
   A13        2.00551   0.00110   0.00000   0.00410   0.00412   2.00962
   A14        1.95162   0.00048   0.00000  -0.00900  -0.00903   1.94259
   A15        1.93369  -0.00075   0.00000   0.00052   0.00050   1.93419
   A16        1.86083  -0.00081   0.00000  -0.00001  -0.00002   1.86080
   A17        1.89921  -0.00004   0.00000  -0.00534  -0.00538   1.89383
   A18        1.92120   0.00031   0.00000   0.00196   0.00195   1.92316
   A19        1.89648   0.00082   0.00000   0.01272   0.01271   1.90919
    D1        1.51391   0.00018   0.00000  -0.39935  -0.40437   1.10954
    D2       -2.43598  -0.00337   0.00000  -0.53280  -0.52624  -2.96221
    D3       -0.68975  -0.00468   0.00000  -0.21030  -0.20856  -0.89832
    D4        1.67217  -0.00246   0.00000  -0.19061  -0.18882   1.48335
    D5       -2.68206  -0.00438   0.00000  -0.19633  -0.19455  -2.87661
    D6       -2.76864   0.00120   0.00000   0.01879   0.01789  -2.75075
    D7       -0.40671   0.00341   0.00000   0.03848   0.03763  -0.36908
    D8        1.52224   0.00150   0.00000   0.03276   0.03190   1.55415
    D9        0.51142  -0.00368   0.00000  -0.04500  -0.04594   0.46547
   D10        2.87334  -0.00147   0.00000  -0.02532  -0.02620   2.84714
   D11       -1.48089  -0.00338   0.00000  -0.03104  -0.03193  -1.51282
   D12       -2.11987   0.00076   0.00000   0.10308   0.10156  -2.01831
   D13        2.04138   0.00101   0.00000   0.11577   0.11424   2.15562
   D14       -0.01926   0.00091   0.00000   0.10025   0.09873   0.07947
   D15        0.15578  -0.00345   0.00000  -0.08759  -0.08692   0.06886
   D16       -1.96616  -0.00320   0.00000  -0.07489  -0.07424  -2.04040
   D17        2.25639  -0.00331   0.00000  -0.09042  -0.08976   2.16663
   D18       -3.12260   0.00135   0.00000  -0.02491  -0.02404   3.13654
   D19        1.03864   0.00160   0.00000  -0.01221  -0.01136   1.02728
   D20       -1.02199   0.00149   0.00000  -0.02774  -0.02688  -1.04887
   D21        0.15804   0.00039   0.00000   0.21950   0.19805   0.35609
         Item               Value     Threshold  Converged?
 Maximum Force            0.007009     0.000450     NO 
 RMS     Force            0.002766     0.000300     NO 
 Maximum Displacement     0.528947     0.001800     NO 
 RMS     Displacement     0.146858     0.001200     NO 
 Predicted change in Energy=-6.654856D-03
 GradGradGradGradGradGradGradGradGradGradGradGradGradGradGradGradGradGrad

                          Input orientation:                          
 ---------------------------------------------------------------------
 Center     Atomic      Atomic             Coordinates (Angstroms)
 Number     Number       Type             X           Y           Z
 ---------------------------------------------------------------------
      1          6           0        0.000220    0.244766   -0.107469
      2          8           0       -0.467481   -0.290259    2.116936
      3          6           0        1.378876    0.045178   -0.513584
      4          6           0       -1.119354   -0.655831   -0.520818
      5          1           0       -0.006018    0.252580    2.773109
      6          1           0       -0.248518    1.121425    0.466678
      7          1           0        2.167602    0.493626    0.103626
      8          1           0        1.663871   -0.965726   -0.839316
      9          1           0       -0.750832   -1.507869   -1.101203
     10          1           0       -1.852167   -0.112803   -1.127392
     11          1           0       -1.596632   -1.004200    0.399608
     12          8           0        0.778520    0.846040   -1.504300
 ---------------------------------------------------------------------
                    Distance matrix (angstroms):
                    1          2          3          4          5
     1  C    0.000000
     2  O    2.335160   0.000000
     3  C    1.451019   3.231283   0.000000
     4  C    1.495119   2.741593   2.594729   0.000000
     5  H    2.880595   0.968600   3.572576   3.593701   0.000000
     6  H    1.077055   2.182693   2.183491   2.211819   2.476554
     7  H    2.191811   3.407574   1.097335   3.537692   3.450923
     8  H    2.183718   3.706527   1.099659   2.818478   4.162020
     9  H    2.150190   3.452431   2.700538   1.094816   4.320211
    10  H    2.144630   3.531927   3.292622   1.095366   4.330783
    11  H    2.089732   2.175755   3.284625   1.093773   3.121387
    12  O    1.708338   3.994627   1.408305   2.612427   4.389068
                    6          7          8          9         10
     6  H    0.000000
     7  H    2.522613   0.000000
     8  H    3.117540   1.809031   0.000000
     9  H    3.102218   3.738296   2.488634   0.000000
    10  H    2.576057   4.247553   3.629462   1.777592   0.000000
    11  H    2.517973   4.062087   3.488165   1.794852   1.786509
    12  O    2.239509   2.153873   2.123334   2.835893   2.825235
                   11         12
    11  H    0.000000
    12  O    3.562246   0.000000
 Symmetry turned off by external request.
 Stoichiometry    C3H7O2(1-)
 Framework group  C1[X(C3H7O2)]
 Deg. of freedom    30
 Full point group                 C1      NOp   1
 Rotational constants (GHZ):      7.7251888      3.1231070      2.5031422
 Standard basis: 6-31++G(d,p) (6D, 7F)
 The following finite field(s) will be applied:
 An electric field of              0.0000  0.0000 -0.0010
 Integral buffers will be    131072 words long.
 Raffenetti 2 integral format.
 Two-electron integral symmetry is turned off.
   137 basis functions,   216 primitive gaussians,   137 cartesian basis functions
    21 alpha electrons       21 beta electrons
       nuclear repulsion energy       176.0465942452 Hartrees.
 NAtoms=   12 NActive=   12 NUniq=   12 SFac= 1.00D+00 NAtFMM=   50 NAOKFM=F Big=F
 One-electron integrals computed using PRISM.
 PrsmSu:  requested number of processors reduced to:  10 ShMem   1 Linda.
 NBasis=   137 RedAO= T  NBF=   137
 NBsUse=   137 1.00D-06 NBFU=   137
 The nuclear repulsion energy is now       176.0490036853 hartrees.
 Initial guess read from the read-write file.
 B after Tr=     0.000000    0.000000    0.000000
         Rot=    1.000000    0.000000    0.000000    0.000000 Ang=   0.00 deg.
 Harris functional with IExCor=  402 diagonalized for initial guess.
 ExpMin= 3.60D-02 ExpMax= 5.48D+03 ExpMxC= 8.25D+02 IAcc=3 IRadAn=         0 AccDes= 0.00D+00
 HarFok:  IExCor=  402 AccDes= 0.00D+00 IRadAn=         0 IDoV= 1
 ScaDFX=  1.000000  1.000000  1.000000  1.000000
 FoFCou: FMM=F IPFlag=           0 FMFlag=      100000 FMFlg1=           0
         NFxFlg=           0 DoJE=T BraDBF=F KetDBF=T FulRan=T
         Omega=  0.000000  0.000000  1.000000  0.000000  0.000000 ICntrl=     500 IOpCl=  0
         NMat0=    1 NMatS0=    1 NMatT0=    0 NMatD0=    1 NMtDS0=    0 NMtDT0=    0
         I1Cent=           4 NGrid=           0.
 Symmetry not used in FoFCou.
 Requested convergence on RMS density matrix=1.00D-08 within 128 cycles.
 Requested convergence on MAX density matrix=1.00D-06.
 Requested convergence on             energy=1.00D-06.
 No special actions if energy rises.
 SCF Done:  E(RB3LYP) =  -268.937824299     A.U. after   14 cycles
             Convg  =    0.3599D-08             -V/T =  2.0093
 Range of M.O.s used for correlation:     1   137
 NBasis=   137 NAE=    21 NBE=    21 NFC=     0 NFV=     0
 NROrb=    137 NOA=    21 NOB=    21 NVA=   116 NVB=   116

 **** Warning!!: The largest alpha MO coefficient is  0.41042890D+02

 PrsmSu:  requested number of processors reduced to:  10 ShMem   1 Linda.
 PrsmSu:  requested number of processors reduced to:  18 ShMem   1 Linda.
 Symmetrizing basis deriv contribution to polar:
 IMax=3 JMax=2 DiffMx= 0.00D+00
 G2DrvN: will do     4 centers at a time, making    4 passes doing MaxLOS=2.
 Estimated number of processors is:   15
 Calling FoFCou, ICntrl=  3107 FMM=F I1Cent=   0 AccDes= 0.00D+00.
 CoulSu:  requested number of processors reduced to:  15 ShMem   1 Linda.
 Calling FoFCou, ICntrl=  3107 FMM=F I1Cent=   0 AccDes= 0.00D+00.
 CoulSu:  requested number of processors reduced to:  15 ShMem   1 Linda.
 Calling FoFCou, ICntrl=  3107 FMM=F I1Cent=   0 AccDes= 0.00D+00.
 CoulSu:  requested number of processors reduced to:  15 ShMem   1 Linda.
 Calling FoFCou, ICntrl=  3107 FMM=F I1Cent=   0 AccDes= 0.00D+00.
 CoulSu:  requested number of processors reduced to:  15 ShMem   1 Linda.
 FoFDir/FoFCou used for L=0 through L=2.
 End of G2Drv Frequency-dependent properties file   721 does not exist.
 End of G2Drv Frequency-dependent properties file   722 does not exist.
          IDoAtm=111111111111
          Differentiating once with respect to electric field.
                with respect to dipole field.
          Differentiating once with respect to nuclear coordinates.
 PrRfSu:  requested number of processors reduced to:  15 ShMem   1 Linda.
 CalDSu:  requested number of processors reduced to:  19 ShMem   1 Linda.
          There are    39 degrees of freedom in the 1st order CPHF.  IDoFFX=5.
     36 vectors produced by pass  0 Test12= 6.25D-15 2.56D-09 XBig12= 8.74D+01 3.59D+00.
 AX will form    36 AO Fock derivatives at one time.
 PrRfSu:  requested number of processors reduced to:  15 ShMem   1 Linda.
 CalDSu:  requested number of processors reduced to:  20 ShMem   1 Linda.
     36 vectors produced by pass  1 Test12= 6.25D-15 2.56D-09 XBig12= 2.12D+01 1.35D+00.
 PrRfSu:  requested number of processors reduced to:  15 ShMem   1 Linda.
 CalDSu:  requested number of processors reduced to:  20 ShMem   1 Linda.
     36 vectors produced by pass  2 Test12= 6.25D-15 2.56D-09 XBig12= 1.10D-01 8.13D-02.
 PrRfSu:  requested number of processors reduced to:  15 ShMem   1 Linda.
 CalDSu:  requested number of processors reduced to:  20 ShMem   1 Linda.
     36 vectors produced by pass  3 Test12= 6.25D-15 2.56D-09 XBig12= 7.06D-04 4.19D-03.
 PrRfSu:  requested number of processors reduced to:  15 ShMem   1 Linda.
 CalDSu:  requested number of processors reduced to:  20 ShMem   1 Linda.
     36 vectors produced by pass  4 Test12= 6.25D-15 2.56D-09 XBig12= 1.60D-06 2.03D-04.
 PrRfSu:  requested number of processors reduced to:  15 ShMem   1 Linda.
 CalDSu:  requested number of processors reduced to:  20 ShMem   1 Linda.
     30 vectors produced by pass  5 Test12= 6.25D-15 2.56D-09 XBig12= 2.29D-09 5.98D-06.
 PrRfSu:  requested number of processors reduced to:  16 ShMem   1 Linda.
 CalDSu:  requested number of processors reduced to:  21 ShMem   1 Linda.
      8 vectors produced by pass  6 Test12= 6.25D-15 2.56D-09 XBig12= 2.29D-12 1.97D-07.
 PrRfSu:  requested number of processors reduced to:  18 ShMem   1 Linda.
      4 vectors produced by pass  7 Test12= 6.25D-15 2.56D-09 XBig12= 1.74D-14 2.53D-08.
      2 vectors produced by pass  8 Test12= 6.25D-15 2.56D-09 XBig12= 6.04D-16 4.85D-09.
      1 vectors produced by pass  9 Test12= 6.25D-15 2.56D-09 XBig12= 1.11D-16 2.68D-09.
 Inverted reduced A of dimension   225 with in-core refinement.
 Isotropic polarizability for W=    0.000000       68.85 Bohr**3.
 End of Minotr Frequency-dependent properties file   721 does not exist.
 End of Minotr Frequency-dependent properties file   722 does not exist.
 PrsmSu:  requested number of processors reduced to:  10 ShMem   1 Linda.
 PrsmSu:  requested number of processors reduced to:  11 ShMem   1 Linda.
 Calling FoFJK, ICntrl=    100127 FMM=F ISym2X=0 I1Cent= 0 IOpClX= 0 NMat=1 NMatS=1 NMatT=0.
 CoulSu:  requested number of processors reduced to:  11 ShMem   1 Linda.
 -------------------------------------------------------------------
 Center     Atomic                   Forces (Hartrees/Bohr)
 Number     Number              X              Y              Z
 -------------------------------------------------------------------
      1        6          -0.002268992    0.013089283   -0.012163694
      2        8          -0.001159427   -0.003203199    0.005086432
      3        6           0.000689453   -0.004887995    0.004405524
      4        6          -0.000123275   -0.002162272    0.002906653
      5        1           0.000996011   -0.001000204    0.001268769
      6        1           0.001674275   -0.001123680   -0.000747659
      7        1           0.000805646    0.002695235   -0.000992716
      8        1           0.000491558   -0.001152852    0.000406847
      9        1           0.000272987   -0.000627490   -0.001150298
     10        1          -0.000656754    0.000704614   -0.001080455
     11        1           0.000040242   -0.000914945    0.000081815
     12        8          -0.000761725   -0.001416494    0.000978783
 -------------------------------------------------------------------
 Cartesian Forces:  Max     0.013089283 RMS     0.003519644

 GradGradGradGradGradGradGradGradGradGradGradGradGradGradGradGradGradGrad
 Berny optimization.
 Internal  Forces:  Max     0.003806830 RMS     0.001397041
 Search for a saddle point.
 Step number   4 out of a maximum of   62
 All quantities printed in internal units (Hartrees-Bohrs-Radians)
 Swaping is turned off.
 Second derivative matrix not updated -- analytic derivatives used.
 ITU=  0  0  0  0
     Eigenvalues ---   -0.01937   0.00092   0.00125   0.00843   0.01073
     Eigenvalues ---    0.01497   0.02076   0.03996   0.04307   0.04814
     Eigenvalues ---    0.06413   0.09400   0.09761   0.11740   0.12545
     Eigenvalues ---    0.12758   0.14150   0.14892   0.16771   0.22818
     Eigenvalues ---    0.31227   0.31842   0.32584   0.33265   0.33893
     Eigenvalues ---    0.34674   0.36310   0.36635   0.46265   0.51371
 Eigenvectors required to have negative eigenvalues:
                          R1        D9        A10       D7        D20
   1                   -0.57291   0.29798   0.26539  -0.24673  -0.22751
                          D18       D19       D11       A6        A7
   1                   -0.21830  -0.21814   0.20509  -0.17773  -0.16997
 RFO step:  Lambda0=1.285827684D-03 Lambda=-3.76431657D-03.
 Linear search not attempted -- option 19 set.
 Maximum step size (   0.300) exceeded in Quadratic search.
    -- Step size scaled by   0.833
 Iteration  1 RMS(Cart)=  0.10679289 RMS(Int)=  0.00607548
 Iteration  2 RMS(Cart)=  0.00725025 RMS(Int)=  0.00185504
 Iteration  3 RMS(Cart)=  0.00002728 RMS(Int)=  0.00185493
 Iteration  4 RMS(Cart)=  0.00000003 RMS(Int)=  0.00185493
[...]
 Linear search not attempted -- option 19 set.
 Iteration  1 RMS(Cart)=  0.00000233 RMS(Int)=  0.00000000
 Iteration  2 RMS(Cart)=  0.00000000 RMS(Int)=  0.00000000
 Variable       Old X    -DE/DX   Delta X   Delta X   Delta X     New X
                                 (Linear)    (Quad)   (Total)
    R1        4.28856   0.00000   0.00000   0.00000   0.00000   4.28856
    R2        2.73921   0.00000   0.00000   0.00000   0.00000   2.73921
    R3        2.83154   0.00000   0.00000   0.00000   0.00000   2.83154
    R4        2.03638   0.00000   0.00000   0.00000   0.00000   2.03638
    R5        1.83146   0.00000   0.00000   0.00000   0.00000   1.83146
    R6        4.43367   0.00000   0.00000   0.00000   0.00000   4.43367
    R7        2.08126   0.00000   0.00000   0.00000   0.00000   2.08126
    R8        2.08268   0.00000   0.00000   0.00000   0.00000   2.08268
    R9        2.66206   0.00000   0.00000   0.00000   0.00000   2.66206
   R10        2.07062   0.00000   0.00000   0.00000   0.00000   2.07062
   R11        2.07475   0.00000   0.00000   0.00000   0.00000   2.07475
   R12        2.06667   0.00000   0.00000   0.00000   0.00000   2.06667
    A1        1.88638   0.00000   0.00000   0.00000   0.00000   1.88638
    A2        1.55482   0.00000   0.00000   0.00000   0.00000   1.55482
    A3        2.14067   0.00000   0.00000   0.00000   0.00000   2.14067
    A4        2.05347   0.00000   0.00000   0.00000   0.00000   2.05347
    A5        2.07734   0.00000   0.00000   0.00000   0.00000   2.07734
    A6        1.97158   0.00000   0.00000   0.00000   0.00000   1.97158
    A7        1.81142   0.00000   0.00000   0.00000   0.00000   1.81142
    A8        2.04646   0.00000   0.00000   0.00000   0.00000   2.04646
    A9        2.03585   0.00000   0.00000   0.00000   0.00000   2.03585
   A10        1.34040   0.00000   0.00000   0.00000   0.00000   1.34040
   A11        1.92810   0.00000   0.00000   0.00000   0.00000   1.92810
   A12        2.02798   0.00000   0.00000   0.00000   0.00000   2.02798
   A13        2.02563   0.00000   0.00000   0.00000   0.00000   2.02563
   A14        1.92815   0.00000   0.00000   0.00000   0.00000   1.92815
   A15        1.93791   0.00000   0.00000   0.00000   0.00000   1.93791
   A16        1.87925   0.00000   0.00000   0.00000   0.00000   1.87925
   A17        1.88595   0.00000   0.00000   0.00000   0.00000   1.88595
   A18        1.91303   0.00000   0.00000   0.00000   0.00000   1.91303
   A19        1.91973   0.00000   0.00000   0.00000   0.00000   1.91973
    D1        0.72173   0.00000   0.00000  -0.00001  -0.00001   0.72172
    D2        2.88983   0.00000   0.00000  -0.00001  -0.00001   2.88981
    D3       -1.05872   0.00000   0.00000   0.00000   0.00000  -1.05872
    D4        1.28556   0.00000   0.00000   0.00000   0.00000   1.28556
    D5       -3.02928   0.00000   0.00000   0.00000   0.00000  -3.02928
    D6       -2.81992   0.00000   0.00000   0.00000   0.00000  -2.81992
    D7       -0.47564   0.00000   0.00000   0.00000   0.00000  -0.47564
    D8        1.49271   0.00000   0.00000   0.00000   0.00000   1.49271
    D9        0.48725   0.00000   0.00000   0.00000   0.00000   0.48725
   D10        2.83154   0.00000   0.00000   0.00000   0.00000   2.83154
   D11       -1.48330   0.00000   0.00000   0.00000   0.00000  -1.48330
   D12       -1.93414   0.00000   0.00000   0.00000   0.00000  -1.93414
   D13        2.25688   0.00000   0.00000   0.00000   0.00000   2.25688
   D14        0.15441   0.00000   0.00000   0.00000   0.00000   0.15441
   D15        0.00325   0.00000   0.00000   0.00000   0.00000   0.00325
   D16       -2.08892   0.00000   0.00000   0.00000   0.00000  -2.08892
   D17        2.09179   0.00000   0.00000   0.00000   0.00000   2.09179
   D18        2.97709   0.00000   0.00000   0.00000   0.00000   2.97709
   D19        0.88492   0.00000   0.00000   0.00000   0.00000   0.88492
   D20       -1.21754   0.00000   0.00000   0.00000   0.00000  -1.21755
   D21        0.46686   0.00000   0.00000   0.00000   0.00000   0.46686
         Item               Value     Threshold  Converged?
 Maximum Force            0.000000     0.000450     YES
 RMS     Force            0.000000     0.000300     YES
 Maximum Displacement     0.000009     0.001800     YES
 RMS     Displacement     0.000002     0.001200     YES
 Predicted change in Energy=-4.666891D-13
 Optimization completed.
    -- Stationary point found.
                           ----------------------------
                           !   Optimized Parameters   !
                           ! (Angstroms and Degrees)  !
 --------------------------                            --------------------------
 ! Name  Definition              Value          Derivative Info.                !
 --------------------------------------------------------------------------------
 ! R1    R(1,2)                  2.2694         -DE/DX =    0.0                 !
 ! R2    R(1,3)                  1.4495         -DE/DX =    0.0                 !
 ! R3    R(1,4)                  1.4984         -DE/DX =    0.0                 !
 ! R4    R(1,6)                  1.0776         -DE/DX =    0.0                 !
 ! R5    R(2,5)                  0.9692         -DE/DX =    0.0                 !
 ! R6    R(2,6)                  2.3462         -DE/DX =    0.0                 !
 ! R7    R(3,7)                  1.1014         -DE/DX =    0.0                 !
 ! R8    R(3,8)                  1.1021         -DE/DX =    0.0                 !
 ! R9    R(3,12)                 1.4087         -DE/DX =    0.0                 !
 ! R10   R(4,9)                  1.0957         -DE/DX =    0.0                 !
 ! R11   R(4,10)                 1.0979         -DE/DX =    0.0                 !
 ! R12   R(4,11)                 1.0936         -DE/DX =    0.0                 !
 ! A1    A(2,1,3)              108.0815         -DE/DX =    0.0                 !
 ! A2    A(2,1,4)               89.0847         -DE/DX =    0.0                 !
 ! A3    A(3,1,4)              122.6513         -DE/DX =    0.0                 !
 ! A4    A(3,1,6)              117.6552         -DE/DX =    0.0                 !
 ! A5    A(4,1,6)              119.023          -DE/DX =    0.0                 !
 ! A6    A(1,2,5)              112.9631         -DE/DX =    0.0                 !
 ! A7    A(5,2,6)              103.7866         -DE/DX =    0.0                 !
 ! A8    A(1,3,7)              117.2534         -DE/DX =    0.0                 !
 ! A9    A(1,3,8)              116.6456         -DE/DX =    0.0                 !
 ! A10   A(1,3,12)              76.7992         -DE/DX =    0.0                 !
 ! A11   A(7,3,8)              110.4722         -DE/DX =    0.0                 !
 ! A12   A(7,3,12)             116.1947         -DE/DX =    0.0                 !
 ! A13   A(8,3,12)             116.06           -DE/DX =    0.0                 !
 ! A14   A(1,4,9)              110.4746         -DE/DX =    0.0                 !
 ! A15   A(1,4,10)             111.0342         -DE/DX =    0.0                 !
 ! A16   A(1,4,11)             107.673          -DE/DX =    0.0                 !
 ! A17   A(9,4,10)             108.0571         -DE/DX =    0.0                 !
 ! A18   A(9,4,11)             109.6083         -DE/DX =    0.0                 !
 ! A19   A(10,4,11)            109.9925         -DE/DX =    0.0                 !
 ! D1    D(3,1,2,5)             41.3523         -DE/DX =    0.0                 !
 ! D2    D(4,1,2,5)            165.5748         -DE/DX =    0.0                 !
 ! D3    D(2,1,3,7)            -60.6604         -DE/DX =    0.0                 !
 ! D4    D(2,1,3,8)             73.6572         -DE/DX =    0.0                 !
 ! D5    D(2,1,3,12)          -173.5649         -DE/DX =    0.0                 !
 ! D6    D(4,1,3,7)           -161.5697         -DE/DX =    0.0                 !
 ! D7    D(4,1,3,8)            -27.252          -DE/DX =    0.0                 !
 ! D8    D(4,1,3,12)            85.5258         -DE/DX =    0.0                 !
 ! D9    D(6,1,3,7)             27.9174         -DE/DX =    0.0                 !
 ! D10   D(6,1,3,8)            162.2351         -DE/DX =    0.0                 !
 ! D11   D(6,1,3,12)           -84.9871         -DE/DX =    0.0                 !
 ! D12   D(2,1,4,9)           -110.8179         -DE/DX =    0.0                 !
 ! D13   D(2,1,4,10)           129.3096         -DE/DX =    0.0                 !
 ! D14   D(2,1,4,11)             8.8471         -DE/DX =    0.0                 !
 ! D15   D(3,1,4,9)              0.186          -DE/DX =    0.0                 !
 ! D16   D(3,1,4,10)          -119.6864         -DE/DX =    0.0                 !
 ! D17   D(3,1,4,11)           119.851          -DE/DX =    0.0                 !
 ! D18   D(6,1,4,9)            170.5748         -DE/DX =    0.0                 !
 ! D19   D(6,1,4,10)            50.7024         -DE/DX =    0.0                 !
 ! D20   D(6,1,4,11)           -69.7602         -DE/DX =    0.0                 !
 ! D21   D(1,2,5,6)             26.749          -DE/DX =    0.0                 !
 --------------------------------------------------------------------------------
 GradGradGradGradGradGradGradGradGradGradGradGradGradGradGradGradGradGrad

 1\1\GINC-C03N08\Freq\RB3LYP\6-31++G(d,p)\C3H7O2(1-)\ROOT\09-Mar-2018\0
 \\#N Geom=AllCheck Guess=TCheck SCRF=Check GenChk RB3LYP/6-31++G(d,p) 
 Freq\\OH-BACK-MID\\-1,1\C,-0.0649438957,0.3082706003,-0.10683694\O,-0.
 4178686154,-0.2958597824,2.0520256669\C,1.3305197115,0.0699564766,-0.4
 183256478\C,-1.1575511561,-0.6290260871,-0.5225825727\H,0.3001763551,-
 0.0233290365,2.6431447908\H,-0.32847679,1.2683123841,0.3055960309\H,2.
 0801403015,0.6191913719,0.1727717614\H,1.6357229611,-0.9812173054,-0.5
 468654481\H,-0.7426299636,-1.4823546543,-1.0705598476\H,-1.8819426064,
 -0.1248902619,-1.1756567793\H,-1.6550113228,-0.9824487486,0.3849742036
 \O,0.8499524284,0.720321943,-1.5718075921\\Version=EM64L-G09RevB.01\HF
 =-268.9393829\RMSD=1.617e-09\RMSF=4.928e-05\ZeroPoint=0.0943997\Therma
 l=0.1012871\Dipole=0.4036026,-0.0018368,-0.9674995\DipoleDeriv=0.45369
 45,0.2150239,-0.3422927,0.3761017,0.3019662,-0.5266527,-0.7455477,-0.4
 310008,2.0296073,-0.7100192,0.1106088,0.2226257,0.050728,-0.9280537,0.
 1949999,0.3503972,0.1620079,-1.5003753,0.5048474,0.0431543,-0.158959,-
 0.2083209,0.4651505,0.1343807,0.4052285,-0.0502866,0.2780895,0.0249834
 ,-0.1442403,0.0399834,-0.1102382,0.0866265,-0.0026873,0.0611598,-0.010
 8568,0.0547135,-0.0248909,-0.1241477,-0.2079876,-0.1140147,0.2161071,-
 0.0698262,-0.1440097,-0.0449649,0.0264935,-0.0081541,-0.0169005,0.0202
 735,-0.0178263,-0.0546334,-0.000987,0.0470819,0.0060302,-0.0416634,-0.
 2020845,-0.0690997,-0.1290082,-0.1225165,-0.0582695,-0.0872961,-0.1962
 194,-0.0682373,-0.0668721,-0.0402379,0.0619621,-0.0228977,0.1679462,-0
 .2807377,-0.0328808,-0.0360852,-0.0132612,0.0233308,0.0053916,0.104325
 3,0.0555442,0.0282685,-0.1097388,-0.101209,-0.0072302,-0.1071663,-0.01
 56625,-0.1268271,0.0433538,-0.1242961,0.0798662,-0.0104336,0.0759204,-
 0.1682,0.0306945,-0.0719847,0.0160877,-0.0203511,0.031634,-0.0458523,0
 .0444908,0.0218015,0.115224,0.0652391,0.0676614,-0.8927908,-0.2036889,
 0.6153805,-0.0841417,-0.6724746,0.3944367,0.3182007,0.4618022,-1.78333
 8\Polar=66.1938146,2.2840493,57.5312654,-8.2171165,-5.787351,84.177142
 4\PG=C01 [X(C3H7O2)]\NImag=1\\0.61596515,-0.04674882,0.56845672,-0.010
 32839,0.23399511,0.09169180,-0.01735428,-0.00084349,0.00107283,0.29874
 683,-0.00158049,-0.01180158,-0.00441028,0.11481588,0.05145233,0.002066
 86,-0.00676991,0.02791685,0.22697244,0.08013611,0.21671168,-0.32808799
 ,0.03477126,0.08441423,0.00477144,0.00239963,-0.01098234,0.61814931,0.
 06137397,-0.06326874,-0.05991525,-0.00194255,-0.00312623,0.00588959,-0
 .03472951,0.55761775,0.02362943,-0.04520075,0.01155507,0.00050361,0.00
 133331,-0.00756253,0.06934927,0.08300625,0.36200939,-0.15497066,-0.066
 84031,-0.03015908,-0.00356272,-0.00197755,-0.00266294,-0.01904223,-0.0
 1814263,-0.00491837,0.51798474,-0.06447049,-0.14370244,-0.04240951,-0.
 00105198,0.00007032,0.00104178,0.00444016,0.00838035,0.00720845,-0.035
 43607,0.53123966,-0.04996473,-0.04416172,-0.07069744,-0.00519658,-0.00
 207463,-0.00996028,-0.00083732,-0.00189441,-0.00782652,-0.01720172,0.0
 0081980,0.56426618,0.00124221,0.00142444,-0.00414018,-0.28489757,-0.10
 847101,-0.22825073,0.00032317,-0.00028913,0.00080668,0.00018456,-0.000
 62669,0.00067908,0.28303880,0.00159181,0.00007001,-0.00347657,-0.10889
 282,-0.04285187,-0.08512235,-0.00007710,0.00031502,0.00012289,-0.00050
 597,0.00076961,-0.00009602,0.10711867,0.04249517,-0.00549453,-0.003963
 32,0.00844689,-0.22393039,-0.08285935,-0.19474551,-0.00090241,0.000212
 43,-0.00222816,-0.00308655,-0.00094800,-0.00102060,0.22905021,0.085675
 46,0.19575015,-0.06816723,0.06405476,0.02793845,-0.00008797,-0.0012171
 4,0.00109307,-0.00738577,0.02480617,0.01281334,0.00715327,-0.01932509,
 -0.00898178,-0.00014031,0.00040659,-0.00034383,0.07501641,0.07166794,-
 0.30347132,-0.12420869,0.00006788,0.00091346,0.00337264,-0.00245166,-0
 .00611522,0.00077336,0.00700143,-0.01081898,-0.00579195,-0.00033727,-0
 .00052037,0.00070151,-0.06764048,0.31000317,0.01889834,-0.11709177,-0.
 06082045,0.00042106,0.00492145,-0.00989689,0.00191987,0.00682542,-0.00
 049006,0.00109377,-0.00635925,0.00053250,-0.00008245,0.00143608,-0.001
 27777,-0.03197058,0.12001746,0.08239555,-0.01510969,-0.01714912,-0.017
 39587,0.00119042,0.00030454,0.00135584,-0.15454911,-0.08692288,-0.0729
 3646,-0.00220822,0.00350018,-0.00132528,-0.00013650,-0.00015200,0.0010
 5803,0.00106968,-0.00009711,0.00064540,0.16984023,0.00395828,-0.000796
 30,-0.00004715,0.00042853,0.00009325,0.00023691,-0.08683532,-0.1254582
 6,-0.06625869,-0.00023624,0.00017663,-0.00025823,-0.00006176,0.0001144
 9,0.00041276,0.00015935,0.00105174,-0.00013939,0.08940854,0.12536545,0
 .01011746,0.01217388,0.00325856,-0.00039329,-0.00043939,0.00147320,-0.
 07838227,-0.07064019,-0.10426333,0.00202645,-0.00131044,0.00082500,0.0
 0010818,0.00009231,0.00013880,-0.00096173,-0.00009483,-0.00019585,0.09
 793149,0.07045644,0.12020048,-0.00612792,0.02855194,0.00402190,0.00026
 025,-0.00101958,0.00079946,-0.06622372,0.05096385,0.01088407,0.0014550
 9,0.00095957,0.00144993,-0.00008217,-0.00003189,0.00016080,-0.00318310
 ,0.00096038,-0.00179274,0.00609491,-0.01973110,-0.00417511,0.07007971,
 -0.00218585,-0.00367889,0.00430209,-0.00009399,0.00149360,-0.00153691,
 0.05380231,-0.26091735,-0.04679084,-0.00063061,0.00040882,-0.00041800,
 0.00010054,-0.00025218,-0.00003689,-0.00050271,0.00062317,0.00083262,0
 .00419034,-0.01546971,-0.00560704,-0.06807466,0.28935796,0.00245755,-0
 .01478677,-0.00581263,-0.00036307,0.00068897,0.00055239,0.00964402,-0.
 04071341,-0.05375986,-0.00136178,0.00073083,0.00027637,-0.00001476,-0.
 00018862,0.00014337,0.00267866,-0.00056254,0.00109624,0.00403250,-0.01
 486413,0.00039769,-0.00300854,0.03554504,0.05496477,0.00832310,-0.0211
 5412,-0.01233970,0.00023682,0.00009437,0.00011474,0.00147229,-0.001912
 97,-0.00070369,-0.08710110,0.08175289,0.05165493,0.00023308,0.00001389
 ,0.00003263,-0.00313454,-0.00279667,-0.00092647,0.00019191,0.00031500,
 -0.00000052,0.00007033,0.00067072,-0.00012342,0.09373345,0.00831526,-0
 .01981589,-0.01217448,-0.00026425,0.00058204,-0.00007455,0.00191265,0.
 00093219,-0.00066934,0.07730811,-0.20109428,-0.09979126,0.00019201,-0.
 00018500,-0.00007001,-0.00353851,-0.00111106,-0.00058877,0.00015905,0.
 00048604,-0.00012045,-0.00099527,0.00056455,0.00044464,-0.08475227,0.2
 2009233,0.00569390,-0.00690269,-0.00556965,-0.00119200,0.00038838,-0.0
 0089071,0.00101675,-0.00047567,0.00033730,0.04916175,-0.10194957,-0.11
 098625,-0.00035055,0.00017764,-0.00051985,-0.00112992,-0.00060537,0.00
 053881,-0.00014638,0.00033845,-0.00004847,-0.00062956,0.00034039,0.000
 04355,-0.05368535,0.11381144,0.11622088,-0.02102613,0.01153241,-0.0118
 9379,0.00000223,-0.00017340,-0.00019965,-0.00114669,-0.00251754,-0.005
 11977,-0.15093869,0.07844168,-0.09698917,0.00027611,0.00020718,0.00012
 487,0.00106875,-0.00046330,0.00053179,-0.00139376,-0.00038196,0.000972
 64,0.00052011,-0.00011533,-0.00013254,-0.00846334,0.00564520,-0.007204
 37,0.16672839,-0.01798378,0.01017167,-0.00981541,0.00006580,0.00039911
 ,-0.00053304,-0.00108510,-0.00188439,-0.00244085,0.07974598,-0.1040055
 1,0.07027320,0.00014353,0.00029913,-0.00006856,0.00088412,0.00085034,0
 .00035618,-0.00100075,0.00027347,0.00028463,-0.00028110,0.00023640,0.0
 0003420,0.01516171,-0.01171639,0.01565471,-0.08469582,0.11072950,-0.00
 390981,0.00598305,-0.00489680,-0.00175757,-0.00116778,-0.00152611,0.00
 155556,-0.00082253,-0.00112914,-0.09949968,0.06981783,-0.13604600,0.00
 019400,-0.00032916,-0.00126946,0.00001124,-0.00017325,0.00013975,-0.00
 016502,0.00021869,0.00027493,-0.00017064,0.00020918,0.00000782,0.01133
 554,-0.00727911,0.01025874,0.11112920,-0.07767765,0.14487439,-0.011801
 53,-0.00810593,0.02141152,-0.00085216,-0.00004275,-0.00191993,-0.00139
 188,-0.00067317,0.00118158,-0.10032163,-0.03753218,0.10379781,0.000891
 35,0.00092016,0.00079328,0.00029468,-0.00003939,-0.00056413,-0.0000921
 6,-0.00015010,0.00008740,-0.00003213,0.00006360,-0.00010738,-0.0060850
 1,-0.00425309,0.00895568,0.01140116,0.00693615,-0.01868913,0.11023953,
 -0.00885284,-0.00602397,0.01704867,-0.00003962,-0.00033729,-0.00096778
 ,-0.00015124,-0.00106597,0.00121198,-0.03830327,-0.07640100,0.07213044
 ,0.00091337,-0.00001536,0.00052031,0.00026941,0.00026399,-0.00076905,-
 0.00005594,-0.00000737,-0.00011491,-0.00010128,0.00028976,-0.00019570,
 0.01195086,0.01002934,-0.02162964,-0.00713651,-0.00567579,0.01209396,0
 .04460002,0.07952550,-0.00014067,-0.00092593,0.00880766,-0.00345425,-0
 .00186258,-0.00256884,-0.00063302,0.00016552,0.00007623,0.10577715,0.0
 7255933,-0.22924853,0.00091991,0.00079422,-0.00250612,0.00033351,-0.00
 003004,-0.00011402,-0.00007259,-0.00012793,0.00004060,0.00003036,0.000
 07175,-0.00002242,0.00479285,0.00442674,-0.00972454,0.00672869,0.00424
 019,-0.01240879,-0.11264352,-0.07902067,0.24746907,-0.00288504,0.02050
 699,-0.05260192,0.00154670,-0.00313248,0.01161318,-0.04688882,0.009986
 38,-0.03548969,-0.00863241,-0.01065198,0.02291484,-0.00093272,-0.00059
 852,0.00253790,-0.00250387,-0.00587175,0.01182614,-0.00489773,0.013126
 78,-0.02733071,-0.00283136,0.01277565,-0.01370124,0.00052302,0.0002711
 2,-0.00048996,0.00297185,0.00210927,-0.00003369,-0.00225023,-0.0030929
 7,-0.00163842,0.06678063,-0.00508500,-0.02613929,0.00111148,-0.0022493
 8,0.00311286,0.00432751,0.02800390,-0.10540915,0.06770423,-0.00198287,
 -0.00502318,0.01126277,-0.00010670,-0.00023866,0.00042366,0.00164355,0
 .00833109,-0.00944097,0.00781517,0.01417056,-0.00468001,0.00879913,-0.
 01265614,0.03386749,0.00065661,0.00123615,0.00085194,-0.00034260,0.000
 32245,-0.00087323,-0.00172332,-0.00058183,-0.00029059,-0.03542849,0.12
 287514,0.00697459,-0.01234917,-0.00387986,0.00731723,0.00534579,-0.019
 50325,-0.07616233,0.07836226,-0.19671839,0.00083100,0.00079875,-0.0001
 1443,0.00108060,0.00091412,-0.00091175,-0.00148044,0.00660171,-0.01190
 780,-0.01298166,0.01003227,-0.02210161,-0.00756993,0.01308861,0.002112
 72,-0.00015154,0.00208515,0.00034018,0.00205211,-0.00030760,0.00172067
 ,-0.00230318,-0.00030762,0.00019970,0.08239357,-0.10426429,0.25076382\
 \-0.00000242,0.00000067,0.00008746,0.00001850,-0.00001854,0.00008550,-
 0.00000447,0.00000805,0.00007324,-0.00000300,0.00000067,0.00008928,0.0
 0002276,-0.00002107,0.00008154,-0.00000212,-0.00000339,0.00009798,-0.0
 0000107,0.00000561,0.00007127,-0.00000207,0.00001018,0.00006174,-0.000
 00501,0.00000663,0.00007847,-0.00001045,0.00000372,0.00009988,0.000006
 11,-0.00000866,0.00009067,-0.00001675,0.00001615,0.00008295\\\@


 A MATHEMATICIAN IS A MACHINE FOR TURNING COFFEE INTO THEOREMS.
     -- QUOTED BY PAUL ERDOS
 Job cpu time:  0 days  0 hours  7 minutes  1.2 seconds.
 File lengths (MBytes):  RWF=   1312 Int=      0 D2E=      0 Chk=     32 Scr=     32
 Normal termination of Gaussian 09 at Fri Mar  9 14:53:04 2018.
